4112
Atoms. Timestep: 0
Al 2.56 1.95 0
Si 3.32 0.21 2.68
Si 3.42 3.16 2.69
Op 3.13 0.38 1.06
Op 3.57 3.13 1.06
Ohmg 0.97 2.1 0.99
O 30.61 3.68 3.3
O 3.12 1.66 3.3
O 2.25 4.18 3.06
H 0.57 1.36 1.43
Al 0.02 6.43 0
Si 0.78 4.7 2.68
Si 0.88 7.64 2.69
Omg 0.59 4.87 1.06
Op 1.04 7.61 1.06
Ohmg 3.59 6.58 0.99
O 2.27 8.16 3.3
O 0.58 6.14 3.3
O 30.68 8.66 3.06
H 3.19 5.84 1.43
Al 2.62 7.92 0
Si 1.78 0.69 38.9
Si 1.76 6.71 38.89
Op 1.97 0.52 40.52
Op 1.61 6.74 40.52
Ohmg 4.21 7.77 40.59
O 5.53 6.19 38.28
O 2.07 8.21 38.29
O 2.93 5.69 38.53
H 4.61 8.51 40.16
Mgo 0 3.44 0
Si 4.4 5.17 38.9
Si 4.3 2.23 38.89
Omg 4.6 5 40.52
Op 4.15 2.26 40.52
Ohmg 1.59 3.29 40.59
O 2.91 1.71 38.28
O 4.6 3.73 38.29
O 5.46 1.21 38.53
H 1.99 4.03 40.16
Al 7.72 1.95 0
Si 8.48 0.21 2.68
Si 8.58 3.16 2.69
Omg 8.29 0.38 1.06
Op 8.73 3.13 1.06
Oh 6.13 2.1 0.99
O 4.81 3.68 3.3
O 8.28 1.66 3.3
O 7.41 4.18 3.06
H 5.73 1.36 1.43
Mgo 5.18 6.43 0
Si 5.94 4.7 2.68
Si 6.04 7.64 2.69
Omg 5.75 4.87 1.06
Omg 6.2 7.61 1.06
Oh 8.75 6.58 0.99
O 7.43 8.16 3.3
O 5.74 6.14 3.3
O 4.88 8.66 3.06
H 8.35 5.84 1.43
Al 7.78 7.92 0
Si 6.94 0.69 38.9
Si 6.92 6.71 38.89
Omg 7.13 0.52 40.52
Omg 6.77 6.74 40.52
Oh 9.37 7.77 40.59
O 10.69 6.19 38.28
O 7.23 8.21 38.29
O 8.09 5.69 38.53
H 9.77 8.51 40.16
Al 5.16 3.44 0
Si 9.56 5.17 38.9
Si 9.46 2.23 38.89
Op 9.76 5 40.52
Op 9.31 2.26 40.52
Oh 6.75 3.29 40.59
O 8.07 1.71 38.28
O 9.76 3.73 38.29
O 10.62 1.21 38.53
H 7.15 4.03 40.16
Al 12.88 1.95 0
Si 13.64 0.21 2.68
Si 13.74 3.16 2.69
Op 13.45 0.38 1.06
Op 13.89 3.13 1.06
Oh 11.29 2.1 0.99
O 9.97 3.68 3.3
O 13.44 1.66 3.3
O 12.57 4.18 3.06
H 10.89 1.36 1.43
Al 10.34 6.43 0
Si 11.1 4.7 2.68
Si 11.2 7.64 2.69
Op 10.91 4.87 1.06
Op 11.36 7.61 1.06
Oh 13.91 6.58 0.99
O 12.59 8.16 3.3
O 10.9 6.14 3.3
O 10.04 8.66 3.06
H 13.51 5.84 1.43
Al 12.94 7.92 0
Si 12.1 0.69 38.9
Si 12.08 6.71 38.89
Op 12.29 0.52 40.52
Op 11.93 6.74 40.52
Oh 14.53 7.77 40.59
O 15.85 6.19 38.28
O 12.39 8.21 38.29
O 13.25 5.69 38.53
H 14.93 8.51 40.16
Al 10.32 3.44 0
Si 14.72 5.17 38.9
Si 14.62 2.23 38.89
Op 14.92 5 40.52
Op 14.47 2.26 40.52
Oh 11.91 3.29 40.59
O 13.23 1.71 38.28
O 14.92 3.73 38.29
O 15.78 1.21 38.53
H 12.31 4.03 40.16
Mgo 18.04 1.95 0
Si 18.8 0.21 2.68
Si 18.9 3.16 2.69
Omg 18.61 0.38 1.06
Omg 19.05 3.13 1.06
Ohmg 16.45 2.1 0.99
O 15.13 3.68 3.3
O 18.6 1.66 3.3
O 17.73 4.18 3.06
H 16.05 1.36 1.43
Al 15.5 6.43 0
Si 16.26 4.7 2.68
Si 16.36 7.64 2.69
Op 16.07 4.87 1.06
Omg 16.52 7.61 1.06
Ohmg 19.07 6.58 0.99
O 17.75 8.16 3.3
O 16.06 6.14 3.3
O 15.2 8.66 3.06
H 18.67 5.84 1.43
Mgo 18.1 7.92 0
Si 17.26 0.69 38.9
Si 17.24 6.71 38.89
Omg 17.45 0.52 40.52
Omg 17.09 6.74 40.52
Ohmg 19.69 7.77 40.59
O 21.01 6.19 38.28
O 17.55 8.21 38.29
O 18.41 5.69 38.53
H 20.09 8.51 40.16
Al 15.48 3.44 0
Si 19.88 5.17 38.9
Si 19.78 2.23 38.89
Op 20.08 5 40.52
Omg 19.63 2.26 40.52
Ohmg 17.07 3.29 40.59
O 18.39 1.71 38.28
O 20.08 3.73 38.29
O 20.94 1.21 38.53
H 17.47 4.03 40.16
Al 23.2 1.95 0
Si 23.96 0.21 2.68
Si 24.06 3.16 2.69
Op 23.77 0.38 1.06
Op 24.21 3.13 1.06
Oh 21.61 2.1 0.99
O 20.29 3.68 3.3
O 23.76 1.66 3.3
O 22.89 4.18 3.06
H 21.21 1.36 1.43
Al 20.66 6.43 0
Si 21.42 4.7 2.68
Si 21.52 7.64 2.69
Op 21.23 4.87 1.06
Op 21.68 7.61 1.06
Oh 24.23 6.58 0.99
O 22.91 8.16 3.3
O 21.22 6.14 3.3
O 20.36 8.66 3.06
H 23.83 5.84 1.43
Al 23.26 7.92 0
Si 22.42 0.69 38.9
Si 22.4 6.71 38.89
Op 22.61 0.52 40.52
Op 22.25 6.74 40.52
Oh 24.85 7.77 40.59
O 26.17 6.19 38.28
O 22.71 8.21 38.29
O 23.57 5.69 38.53
H 25.25 8.51 40.16
Al 20.64 3.44 0
Si 25.04 5.17 38.9
Si 24.94 2.23 38.89
Op 25.24 5 40.52
Op 24.79 2.26 40.52
Oh 22.23 3.29 40.59
O 23.55 1.71 38.28
O 25.24 3.73 38.29
O 26.1 1.21 38.53
H 22.63 4.03 40.16
Al 28.36 1.95 0
Si 29.12 0.21 2.68
Si 29.22 3.16 2.69
Op 28.93 0.38 1.06
Omg 29.37 3.13 1.06
Oh 26.77 2.1 0.99
O 25.45 3.68 3.3
O 28.92 1.66 3.3
O 28.05 4.18 3.06
H 26.37 1.36 1.43
Al 25.82 6.43 0
Si 26.58 4.7 2.68
Si 26.68 7.64 2.69
Op 26.39 4.87 1.06
Op 26.84 7.61 1.06
Oh 29.39 6.58 0.99
O 28.07 8.16 3.3
O 26.38 6.14 3.3
O 25.52 8.66 3.06
H 28.99 5.84 1.43
Al 28.42 7.92 0
Si 27.58 0.69 38.9
Si 27.56 6.71 38.89
Op 27.77 0.52 40.52
Op 27.41 6.74 40.52
Oh 30.01 7.77 40.59
O 0.37 6.19 38.28
O 27.87 8.21 38.29
O 28.73 5.69 38.53
H 30.41 8.51 40.16
Al 25.8 3.44 0
Si 30.2 5.17 38.9
Si 30.1 2.23 38.89
Omg 30.4 5 40.52
Omg 29.95 2.26 40.52
Oh 27.39 3.29 40.59
O 28.71 1.71 38.28
O 30.4 3.73 38.29
O 0.3 1.21 38.53
H 27.79 4.03 40.16
Al 2.64 10.92 0
Si 3.4 9.18 2.68
Si 3.5 12.13 2.69
Op 3.21 9.35 1.06
Op 3.66 12.09 1.06
Oh 1.05 11.07 0.99
O 30.69 12.65 3.3
O 3.2 10.63 3.3
O 2.34 13.14 3.06
H 0.65 10.32 1.43
Al 0.11 15.4 0
Si 0.86 13.66 2.68
Si 0.97 16.61 2.69
Op 0.67 13.83 1.06
Op 1.12 16.58 1.06
Oh 3.68 15.55 0.99
O 2.36 17.13 3.3
O 0.66 15.11 3.3
O 30.76 17.63 3.06
H 3.28 14.8 1.43
Al 2.71 16.89 0
Si 1.86 9.66 38.9
Si 1.85 15.68 38.89
Op 2.06 9.49 40.52
Op 1.69 15.71 40.52
Oh 4.3 16.73 40.59
O 5.62 15.16 38.28
O 2.15 17.18 38.29
O 3.01 14.66 38.53
H 4.7 17.48 40.16
Al 0.08 12.4 0
Si 4.49 14.14 38.9
Si 4.38 11.19 38.89
Op 4.68 13.97 40.52
Op 4.23 11.22 40.52
Oh 1.67 12.25 40.59
O 2.99 10.67 38.28
O 4.69 12.69 38.29
O 5.55 10.17 38.53
H 2.07 13 40.16
Al 7.8 10.92 0
Si 8.56 9.18 2.68
Si 8.66 12.13 2.69
Op 8.37 9.35 1.06
Op 8.82 12.09 1.06
Oh 6.21 11.07 0.99
O 4.89 12.65 3.3
O 8.36 10.63 3.3
O 7.5 13.14 3.06
H 5.81 10.32 1.43
Al 5.27 15.4 0
Si 6.02 13.66 2.68
Si 6.13 16.61 2.69
Op 5.83 13.83 1.06
Omg 6.28 16.58 1.06
Ohmg 8.84 15.55 0.99
O 7.52 17.13 3.3
O 5.82 15.11 3.3
O 4.96 17.63 3.06
H 8.44 14.8 1.43
Mgo 7.87 16.89 0
Si 7.02 9.66 38.9
Si 7.01 15.68 38.89
Op 7.22 9.49 40.52
Omg 6.85 15.71 40.52
Ohmg 9.46 16.73 40.59
O 10.78 15.16 38.28
O 7.31 17.18 38.29
O 8.17 14.66 38.53
H 9.86 17.48 40.16
Al 5.24 12.4 0
Si 9.65 14.14 38.9
Si 9.54 11.19 38.89
Op 9.84 13.97 40.52
Op 9.39 11.22 40.52
Oh 6.83 12.25 40.59
O 8.15 10.67 38.28
O 9.85 12.69 38.29
O 10.71 10.17 38.53
H 7.23 13 40.16
Mgo 12.96 10.92 0
Si 13.72 9.18 2.68
Si 13.82 12.13 2.69
Omg 13.53 9.35 1.06
Omg 13.98 12.09 1.06
Ohmg 11.37 11.07 0.99
O 10.05 12.65 3.3
O 13.52 10.63 3.3
O 12.66 13.14 3.06
H 10.97 10.32 1.43
Al 10.43 15.4 0
Si 11.18 13.66 2.68
Si 11.29 16.61 2.69
Op 10.99 13.83 1.06
Op 11.44 16.58 1.06
Oh 14 15.55 0.99
O 12.68 17.13 3.3
O 10.98 15.11 3.3
O 10.12 17.63 3.06
H 13.6 14.8 1.43
Al 13.03 16.89 0
Si 12.18 9.66 38.9
Si 12.17 15.68 38.89
Omg 12.38 9.49 40.52
Op 12.01 15.71 40.52
Oh 14.62 16.73 40.59
O 15.94 15.16 38.28
O 12.47 17.18 38.29
O 13.33 14.66 38.53
H 15.02 17.48 40.16
Al 10.4 12.4 0
Si 14.81 14.14 38.9
Si 14.7 11.19 38.89
Op 15 13.97 40.52
Omg 14.55 11.22 40.52
Ohmg 11.99 12.25 40.59
O 13.31 10.67 38.28
O 15.01 12.69 38.29
O 15.87 10.17 38.53
H 12.39 13 40.16
Al 18.12 10.92 0
Si 18.88 9.18 2.68
Si 18.98 12.13 2.69
Omg 18.69 9.35 1.06
Op 19.14 12.09 1.06
Oh 16.53 11.07 0.99
O 15.21 12.65 3.3
O 18.68 10.63 3.3
O 17.82 13.14 3.06
H 16.13 10.32 1.43
Al 15.59 15.4 0
Si 16.34 13.66 2.68
Si 16.45 16.61 2.69
Op 16.15 13.83 1.06
Op 16.6 16.58 1.06
Oh 19.16 15.55 0.99
O 17.84 17.13 3.3
O 16.14 15.11 3.3
O 15.28 17.63 3.06
H 18.76 14.8 1.43
Al 18.19 16.89 0
Si 17.34 9.66 38.9
Si 17.33 15.68 38.89
Omg 17.54 9.49 40.52
Op 17.17 15.71 40.52
Oh 19.78 16.73 40.59
O 21.1 15.16 38.28
O 17.63 17.18 38.29
O 18.49 14.66 38.53
H 20.18 17.48 40.16
Al 15.56 12.4 0
Si 19.97 14.14 38.9
Si 19.86 11.19 38.89
Op 20.16 13.97 40.52
Op 19.71 11.22 40.52
Oh 17.15 12.25 40.59
O 18.47 10.67 38.28
O 20.17 12.69 38.29
O 21.03 10.17 38.53
H 17.55 13 40.16
Al 23.28 10.92 0
Si 24.04 9.18 2.68
Si 24.14 12.13 2.69
Op 23.85 9.35 1.06
Op 24.3 12.09 1.06
Oh 21.69 11.07 0.99
O 20.37 12.65 3.3
O 23.84 10.63 3.3
O 22.98 13.14 3.06
H 21.29 10.32 1.43
Al 20.75 15.4 0
Si 21.5 13.66 2.68
Si 21.61 16.61 2.69
Op 21.31 13.83 1.06
Op 21.76 16.58 1.06
Oh 24.32 15.55 0.99
O 23 17.13 3.3
O 21.3 15.11 3.3
O 20.44 17.63 3.06
H 23.92 14.8 1.43
Al 23.35 16.89 0
Si 22.5 9.66 38.9
Si 22.49 15.68 38.89
Op 22.7 9.49 40.52
Op 22.33 15.71 40.52
Oh 24.94 16.73 40.59
O 26.26 15.16 38.28
O 22.79 17.18 38.29
O 23.65 14.66 38.53
H 25.34 17.48 40.16
Al 20.72 12.4 0
Si 25.13 14.14 38.9
Si 25.02 11.19 38.89
Op 25.32 13.97 40.52
Op 24.87 11.22 40.52
Oh 22.31 12.25 40.59
O 23.63 10.67 38.28
O 25.33 12.69 38.29
O 26.19 10.17 38.53
H 22.71 13 40.16
Mgo 28.44 10.92 0
Si 29.2 9.18 2.68
Si 29.3 12.13 2.69
Omg 29.01 9.35 1.06
Omg 29.46 12.09 1.06
Ohmg 26.85 11.07 0.99
O 25.53 12.65 3.3
O 29 10.63 3.3
O 28.14 13.14 3.06
H 26.45 10.32 1.43
Al 25.91 15.4 0
Si 26.66 13.66 2.68
Si 26.77 16.61 2.69
Op 26.47 13.83 1.06
Omg 26.92 16.58 1.06
Ohmg 29.48 15.55 0.99
O 28.16 17.13 3.3
O 26.46 15.11 3.3
O 25.6 17.63 3.06
H 29.08 14.8 1.43
Mgo 28.51 16.89 0
Si 27.66 9.66 38.9
Si 27.65 15.68 38.89
Omg 27.86 9.49 40.52
Omg 27.49 15.71 40.52
Ohmg 30.1 16.73 40.59
O 0.46 15.16 38.28
O 27.95 17.18 38.29
O 28.81 14.66 38.53
H 30.5 17.48 40.16
Al 25.88 12.4 0
Si 30.29 14.14 38.9
Si 30.18 11.19 38.89
Op 30.48 13.97 40.52
Omg 30.03 11.22 40.52
Ohmg 27.47 12.25 40.59
O 28.79 10.67 38.28
O 30.49 12.69 38.29
O 0.39 10.17 38.53
H 27.87 13 40.16
Mgo 2.73 19.88 0
Si 3.49 18.14 2.68
Si 3.59 21.09 2.69
Omg 3.29 18.32 1.06
Omg 3.74 21.06 1.06
Ohmg 1.14 20.03 0.99
O 30.78 21.61 3.3
O 3.28 19.59 3.3
O 2.42 22.11 3.06
H 0.74 19.29 1.43
Al 0.19 24.36 0
Si 0.95 22.63 2.68
Si 1.05 25.58 2.69
Op 0.76 22.8 1.06
Op 1.2 25.54 1.06
Oh 3.76 24.52 0.99
O 2.44 26.09 3.3
O 0.75 24.07 3.3
O 30.85 26.59 3.06
H 3.36 23.77 1.43
Al 2.79 25.85 0
Si 1.95 18.62 38.9
Si 1.93 24.64 38.89
Omg 2.14 18.45 40.52
Op 1.78 24.67 40.52
Oh 4.38 25.7 40.59
O 5.7 24.12 38.28
O 2.23 26.14 38.29
O 3.09 23.62 38.53
H 4.78 26.45 40.16
Al 0.17 21.37 0
Si 4.57 23.11 38.9
Si 4.47 20.16 38.89
Op 4.76 22.93 40.52
Omg 4.32 20.19 40.52
Ohmg 1.76 21.22 40.59
O 3.08 19.64 38.28
O 4.77 21.66 38.29
O 5.63 19.14 38.53
H 2.16 21.96 40.16
Al 7.89 19.88 0
Si 8.65 18.14 2.68
Si 8.75 21.09 2.69
Omg 8.45 18.32 1.06
Op 8.9 21.06 1.06
Oh 6.3 20.03 0.99
O 4.98 21.61 3.3
O 8.44 19.59 3.3
O 7.58 22.11 3.06
H 5.9 19.29 1.43
Al 5.35 24.36 0
Si 6.11 22.63 2.68
Si 6.21 25.58 2.69
Op 5.92 22.8 1.06
Omg 6.36 25.54 1.06
Ohmg 8.92 24.52 0.99
O 7.6 26.09 3.3
O 5.91 24.07 3.3
O 5.05 26.59 3.06
H 8.52 23.77 1.43
Mgo 7.95 25.85 0
Si 7.11 18.62 38.9
Si 7.09 24.64 38.89
Omg 7.3 18.45 40.52
Omg 6.94 24.67 40.52
Ohmg 9.54 25.7 40.59
O 10.86 24.12 38.28
O 7.39 26.14 38.29
O 8.25 23.62 38.53
H 9.94 26.45 40.16
Al 5.33 21.37 0
Si 9.73 23.11 38.9
Si 9.63 20.16 38.89
Op 9.92 22.93 40.52
Op 9.48 20.19 40.52
Oh 6.92 21.22 40.59
O 8.24 19.64 38.28
O 9.93 21.66 38.29
O 10.79 19.14 38.53
H 7.32 21.96 40.16
Mgo 13.05 19.88 0
Si 13.81 18.14 2.68
Si 13.91 21.09 2.69
Omg 13.61 18.32 1.06
Omg 14.06 21.06 1.06
Ohmg 11.46 20.03 0.99
O 10.14 21.61 3.3
O 13.6 19.59 3.3
O 12.74 22.11 3.06
H 11.06 19.29 1.43
Al 10.51 24.36 0
Si 11.27 22.63 2.68
Si 11.37 25.58 2.69
Op 11.08 22.8 1.06
Op 11.52 25.54 1.06
Oh 14.08 24.52 0.99
O 12.76 26.09 3.3
O 11.07 24.07 3.3
O 10.21 26.59 3.06
H 13.68 23.77 1.43
Al 13.11 25.85 0
Si 12.27 18.62 38.9
Si 12.25 24.64 38.89
Omg 12.46 18.45 40.52
Op 12.1 24.67 40.52
Oh 14.7 25.7 40.59
O 16.02 24.12 38.28
O 12.55 26.14 38.29
O 13.41 23.62 38.53
H 15.1 26.45 40.16
Al 10.49 21.37 0
Si 14.89 23.11 38.9
Si 14.79 20.16 38.89
Op 15.08 22.93 40.52
Omg 14.64 20.19 40.52
Ohmg 12.08 21.22 40.59
O 13.4 19.64 38.28
O 15.09 21.66 38.29
O 15.95 19.14 38.53
H 12.48 21.96 40.16
Al 18.21 19.88 0
Si 18.97 18.14 2.68
Si 19.07 21.09 2.69
Op 18.77 18.32 1.06
Op 19.22 21.06 1.06
Oh 16.62 20.03 0.99
O 15.3 21.61 3.3
O 18.76 19.59 3.3
O 17.9 22.11 3.06
H 16.22 19.29 1.43
Al 15.67 24.36 0
Si 16.43 22.63 2.68
Si 16.53 25.58 2.69
Op 16.24 22.8 1.06
Op 16.68 25.54 1.06
Oh 19.24 24.52 0.99
O 17.92 26.09 3.3
O 16.23 24.07 3.3
O 15.37 26.59 3.06
H 18.84 23.77 1.43
Al 18.27 25.85 0
Si 17.43 18.62 38.9
Si 17.41 24.64 38.89
Op 17.62 18.45 40.52
Op 17.26 24.67 40.52
Oh 19.86 25.7 40.59
O 21.18 24.12 38.28
O 17.71 26.14 38.29
O 18.57 23.62 38.53
H 20.26 26.45 40.16
Al 15.65 21.37 0
Si 20.05 23.11 38.9
Si 19.95 20.16 38.89
Op 20.24 22.93 40.52
Op 19.8 20.19 40.52
Oh 17.24 21.22 40.59
O 18.56 19.64 38.28
O 20.25 21.66 38.29
O 21.11 19.14 38.53
H 17.64 21.96 40.16
Al 23.37 19.88 0
Si 24.13 18.14 2.68
Si 24.23 21.09 2.69
Op 23.93 18.32 1.06
Op 24.38 21.06 1.06
Oh 21.78 20.03 0.99
O 20.46 21.61 3.3
O 23.92 19.59 3.3
O 23.06 22.11 3.06
H 21.38 19.29 1.43
Al 20.83 24.36 0
Si 21.59 22.63 2.68
Si 21.69 25.58 2.69
Op 21.4 22.8 1.06
Op 21.84 25.54 1.06
Ohmg 24.4 24.52 0.99
O 23.08 26.09 3.3
O 21.39 24.07 3.3
O 20.53 26.59 3.06
H 24 23.77 1.43
Al 23.43 25.85 0
Si 22.59 18.62 38.9
Si 22.57 24.64 38.89
Op 22.78 18.45 40.52
Op 22.42 24.67 40.52
Ohmg 25.02 25.7 40.59
O 26.34 24.12 38.28
O 22.87 26.14 38.29
O 23.73 23.62 38.53
H 25.42 26.45 40.16
Al 20.81 21.37 0
Si 25.21 23.11 38.9
Si 25.11 20.16 38.89
Omg 25.4 22.93 40.52
Op 24.96 20.19 40.52
Oh 22.4 21.22 40.59
O 23.72 19.64 38.28
O 25.41 21.66 38.29
O 26.27 19.14 38.53
H 22.8 21.96 40.16
Al 28.53 19.88 0
Si 29.29 18.14 2.68
Si 29.39 21.09 2.69
Omg 29.09 18.32 1.06
Op 29.54 21.06 1.06
Oh 26.94 20.03 0.99
O 25.62 21.61 3.3
O 29.08 19.59 3.3
O 28.22 22.11 3.06
H 26.54 19.29 1.43
Mgo 25.99 24.36 0
Si 26.75 22.63 2.68
Si 26.85 25.58 2.69
Omg 26.56 22.8 1.06
Omg 27 25.54 1.06
Oh 29.56 24.52 0.99
O 28.24 26.09 3.3
O 26.55 24.07 3.3
O 25.69 26.59 3.06
H 29.16 23.77 1.43
Al 28.59 25.85 0
Si 27.75 18.62 38.9
Si 27.73 24.64 38.89
Omg 27.94 18.45 40.52
Omg 27.58 24.67 40.52
Oh 30.18 25.7 40.59
O 0.54 24.12 38.28
O 28.03 26.14 38.29
O 28.89 23.62 38.53
H 30.58 26.45 40.16
Al 25.97 21.37 0
Si 30.37 23.11 38.9
Si 30.27 20.16 38.89
Op 30.56 22.93 40.52
Op 30.12 20.19 40.52
Oh 27.56 21.22 40.59
O 28.88 19.64 38.28
O 30.57 21.66 38.29
O 0.47 19.14 38.53
H 27.96 21.96 40.16
Mgo 2.81 28.85 0
Si 3.57 27.11 2.68
Si 3.67 30.06 2.69
Omg 3.38 27.28 1.06
Omg 3.83 30.03 1.06
Ohmg 1.22 29 0.99
O 30.86 30.58 3.3
O 3.37 28.56 3.3
O 2.51 31.08 3.06
H 0.82 28.25 1.43
Al 0.28 33.33 0
Si 1.03 31.59 2.68
Si 1.14 34.54 2.69
Op 0.84 31.76 1.06
Op 1.29 34.51 1.06
Oh 3.85 33.48 0.99
O 2.52 35.06 3.3
O 0.83 33.04 3.3
O 30.93 35.56 3.06
H 3.45 32.74 1.43
Al 2.87 34.82 0
Si 2.03 27.59 38.9
Si 2.02 33.61 38.89
Omg 2.23 27.42 40.52
Op 1.86 33.64 40.52
Oh 4.47 34.67 40.59
O 5.79 33.09 38.28
O 2.32 35.11 38.29
O 3.18 32.59 38.53
H 4.86 35.41 40.16
Al 0.25 30.33 0
Si 4.66 32.07 38.9
Si 4.55 29.12 38.89
Op 4.85 31.9 40.52
Omg 4.4 29.16 40.52
Ohmg 1.84 30.18 40.59
O 3.16 28.61 38.28
O 4.86 30.63 38.29
O 5.72 28.11 38.53
H 2.24 30.93 40.16
Al 7.97 28.85 0
Si 8.73 27.11 2.68
Si 8.83 30.06 2.69
Omg 8.54 27.28 1.06
Op 8.99 30.03 1.06
Oh 6.38 29 0.99
O 5.06 30.58 3.3
O 8.53 28.56 3.3
O 7.67 31.08 3.06
H 5.98 28.25 1.43
Al 5.44 33.33 0
Si 6.19 31.59 2.68
Si 6.3 34.54 2.69
Op 6 31.76 1.06
Omg 6.45 34.51 1.06
Ohmg 9.01 33.48 0.99
O 7.68 35.06 3.3
O 5.99 33.04 3.3
O 5.13 35.56 3.06
H 8.61 32.74 1.43
Mgo 8.03 34.82 0
Si 7.19 27.59 38.9
Si 7.18 33.61 38.89
Omg 7.39 27.42 40.52
Omg 7.02 33.64 40.52
Ohmg 9.63 34.67 40.59
O 10.95 33.09 38.28
O 7.48 35.11 38.29
O 8.34 32.59 38.53
H 10.02 35.41 40.16
Al 5.41 30.33 0
Si 9.82 32.07 38.9
Si 9.71 29.12 38.89
Op 10.01 31.9 40.52
Op 9.56 29.16 40.52
Oh 7 30.18 40.59
O 8.32 28.61 38.28
O 10.02 30.63 38.29
O 10.88 28.11 38.53
H 7.4 30.93 40.16
Al 13.13 28.85 0
Si 13.89 27.11 2.68
Si 13.99 30.06 2.69
Op 13.7 27.28 1.06
Omg 14.15 30.03 1.06
Oh 11.54 29 0.99
O 10.22 30.58 3.3
O 13.69 28.56 3.3
O 12.83 31.08 3.06
H 11.14 28.25 1.43
Al 10.6 33.33 0
Si 11.35 31.59 2.68
Si 11.46 34.54 2.69
Op 11.16 31.76 1.06
Op 11.61 34.51 1.06
Oh 14.17 33.48 0.99
O 12.84 35.06 3.3
O 11.15 33.04 3.3
O 10.29 35.56 3.06
H 13.77 32.74 1.43
Al 13.19 34.82 0
Si 12.35 27.59 38.9
Si 12.34 33.61 38.89
Op 12.55 27.42 40.52
Op 12.18 33.64 40.52
Oh 14.79 34.67 40.59
O 16.11 33.09 38.28
O 12.64 35.11 38.29
O 13.5 32.59 38.53
H 15.18 35.41 40.16
Al 10.57 30.33 0
Si 14.98 32.07 38.9
Si 14.87 29.12 38.89
Omg 15.17 31.9 40.52
Omg 14.72 29.16 40.52
Oh 12.16 30.18 40.59
O 13.48 28.61 38.28
O 15.18 30.63 38.29
O 16.04 28.11 38.53
H 12.56 30.93 40.16
Al 18.29 28.85 0
Si 19.05 27.11 2.68
Si 19.15 30.06 2.69
Op 18.86 27.28 1.06
Op 19.31 30.03 1.06
Ohmg 16.7 29 0.99
O 15.38 30.58 3.3
O 18.85 28.56 3.3
O 17.99 31.08 3.06
H 16.3 28.25 1.43
Al 15.76 33.33 0
Si 16.51 31.59 2.68
Si 16.62 34.54 2.69
Omg 16.32 31.76 1.06
Op 16.77 34.51 1.06
Oh 19.33 33.48 0.99
O 18 35.06 3.3
O 16.31 33.04 3.3
O 15.45 35.56 3.06
H 18.93 32.74 1.43
Al 18.35 34.82 0
Si 17.51 27.59 38.9
Si 17.5 33.61 38.89
Op 17.71 27.42 40.52
Op 17.34 33.64 40.52
Oh 19.95 34.67 40.59
O 21.27 33.09 38.28
O 17.8 35.11 38.29
O 18.66 32.59 38.53
H 20.34 35.41 40.16
Mgo 15.73 30.33 0
Si 20.14 32.07 38.9
Si 20.03 29.12 38.89
Op 20.33 31.9 40.52
Op 19.88 29.16 40.52
Ohmg 17.32 30.18 40.59
O 18.64 28.61 38.28
O 20.34 30.63 38.29
O 21.2 28.11 38.53
H 17.72 30.93 40.16
Al 23.45 28.85 0
Si 24.21 27.11 2.68
Si 24.31 30.06 2.69
Op 24.02 27.28 1.06
Omg 24.47 30.03 1.06
Oh 21.86 29 0.99
O 20.54 30.58 3.3
O 24.01 28.56 3.3
O 23.15 31.08 3.06
H 21.46 28.25 1.43
Al 20.92 33.33 0
Si 21.67 31.59 2.68
Si 21.78 34.54 2.69
Op 21.48 31.76 1.06
Op 21.93 34.51 1.06
Oh 24.49 33.48 0.99
O 23.16 35.06 3.3
O 21.47 33.04 3.3
O 20.61 35.56 3.06
H 24.09 32.74 1.43
Al 23.51 34.82 0
Si 22.67 27.59 38.9
Si 22.66 33.61 38.89
Op 22.87 27.42 40.52
Op 22.5 33.64 40.52
Oh 25.11 34.67 40.59
O 26.43 33.09 38.28
O 22.96 35.11 38.29
O 23.82 32.59 38.53
H 25.5 35.41 40.16
Al 20.89 30.33 0
Si 25.3 32.07 38.9
Si 25.19 29.12 38.89
Omg 25.49 31.9 40.52
Omg 25.04 29.16 40.52
Oh 22.48 30.18 40.59
O 23.8 28.61 38.28
O 25.5 30.63 38.29
O 26.36 28.11 38.53
H 22.88 30.93 40.16
Al 28.61 28.85 0
Si 29.37 27.11 2.68
Si 29.47 30.06 2.69
Op 29.18 27.28 1.06
Op 29.63 30.03 1.06
Ohmg 27.02 29 0.99
O 25.7 30.58 3.3
O 29.17 28.56 3.3
O 28.31 31.08 3.06
H 26.62 28.25 1.43
Al 26.08 33.33 0
Si 26.83 31.59 2.68
Si 26.94 34.54 2.69
Omg 26.64 31.76 1.06
Op 27.09 34.51 1.06
Oh 29.65 33.48 0.99
O 28.32 35.06 3.3
O 26.63 33.04 3.3
O 25.77 35.56 3.06
H 29.25 32.74 1.43
Al 28.67 34.82 0
Si 27.83 27.59 38.9
Si 27.82 33.61 38.89
Op 28.03 27.42 40.52
Op 27.66 33.64 40.52
Oh 30.27 34.67 40.59
O 0.63 33.09 38.28
O 28.12 35.11 38.29
O 28.98 32.59 38.53
H 30.66 35.41 40.16
Mgo 26.05 30.33 0
Si 30.46 32.07 38.9
Si 30.35 29.12 38.89
Op 30.65 31.9 40.52
Op 30.2 29.16 40.52
Ohmg 27.64 30.18 40.59
O 28.96 28.61 38.28
O 30.66 30.63 38.29
O 0.56 28.11 38.53
H 28.04 30.93 40.16
Al 4.29 4.95 20.79
Si 5.05 3.21 23.47
Si 5.15 6.16 23.48
Op 4.86 3.38 21.85
Omg 5.3 6.13 21.85
Oh 2.7 5.1 21.78
O 1.38 6.68 24.09
O 4.85 4.66 24.09
O 3.98 7.18 23.85
H 2.3 4.36 22.22
Al 1.75 9.43 20.79
Si 2.51 7.7 23.47
Si 2.61 10.64 23.48
Op 2.32 7.87 21.85
Op 2.77 10.61 21.85
Oh 5.32 9.58 21.78
O 4 11.16 24.09
O 2.31 9.14 24.09
O 1.45 11.66 23.85
H 4.92 8.84 22.22
Al 4.35 10.92 20.79
Si 3.51 3.69 18.11
Si 3.49 9.71 18.1
Op 3.7 3.52 19.73
Op 3.34 9.74 19.73
Oh 5.94 10.77 19.8
O 7.26 9.19 17.49
O 3.8 11.21 17.5
O 4.66 8.69 17.74
H 6.34 11.51 19.37
Al 1.73 6.44 20.79
Si 6.13 8.17 18.11
Si 6.03 5.23 18.1
Omg 6.33 8 19.73
Omg 5.88 5.26 19.73
Oh 3.32 6.29 19.8
O 4.64 4.71 17.49
O 6.33 6.73 17.5
O 7.19 4.21 17.74
H 3.72 7.03 19.37
Al 9.45 4.95 20.79
Si 10.21 3.21 23.47
Si 10.31 6.16 23.48
Op 10.02 3.38 21.85
Op 10.46 6.13 21.85
Ohmg 7.86 5.1 21.78
O 6.54 6.68 24.09
O 10.01 4.66 24.09
O 9.14 7.18 23.85
H 7.46 4.36 22.22
Al 6.91 9.43 20.79
Si 7.67 7.7 23.47
Si 7.77 10.64 23.48
Omg 7.48 7.87 21.85
Op 7.93 10.61 21.85
Oh 10.48 9.58 21.78
O 9.16 11.16 24.09
O 7.47 9.14 24.09
O 6.61 11.66 23.85
H 10.08 8.84 22.22
Al 9.51 10.92 20.79
Si 8.67 3.69 18.11
Si 8.65 9.71 18.1
Op 8.86 3.52 19.73
Op 8.5 9.74 19.73
Oh 11.1 10.77 19.8
O 12.42 9.19 17.49
O 8.96 11.21 17.5
O 9.82 8.69 17.74
H 11.5 11.51 19.37
Mgo 6.89 6.44 20.79
Si 11.29 8.17 18.11
Si 11.19 5.23 18.1
Op 11.49 8 19.73
Op 11.04 5.26 19.73
Ohmg 8.48 6.29 19.8
O 9.8 4.71 17.49
O 11.49 6.73 17.5
O 12.35 4.21 17.74
H 8.88 7.03 19.37
Al 14.61 4.95 20.79
Si 15.37 3.21 23.47
Si 15.47 6.16 23.48
Op 15.18 3.38 21.85
Op 15.62 6.13 21.85
Oh 13.02 5.1 21.78
O 11.7 6.68 24.09
O 15.17 4.66 24.09
O 14.3 7.18 23.85
H 12.62 4.36 22.22
Al 12.07 9.43 20.79
Si 12.83 7.7 23.47
Si 12.93 10.64 23.48
Op 12.64 7.87 21.85
Op 13.09 10.61 21.85
Ohmg 15.64 9.58 21.78
O 14.32 11.16 24.09
O 12.63 9.14 24.09
O 11.77 11.66 23.85
H 15.24 8.84 22.22
Al 14.67 10.92 20.79
Si 13.83 3.69 18.11
Si 13.81 9.71 18.1
Op 14.02 3.52 19.73
Op 13.66 9.74 19.73
Ohmg 16.26 10.77 19.8
O 17.58 9.19 17.49
O 14.12 11.21 17.5
O 14.98 8.69 17.74
H 16.66 11.51 19.37
Al 12.05 6.44 20.79
Si 16.45 8.17 18.11
Si 16.35 5.23 18.1
Omg 16.65 8 19.73
Op 16.2 5.26 19.73
Oh 13.64 6.29 19.8
O 14.96 4.71 17.49
O 16.65 6.73 17.5
O 17.51 4.21 17.74
H 14.04 7.03 19.37
Al 19.77 4.95 20.79
Si 20.53 3.21 23.47
Si 20.63 6.16 23.48
Op 20.34 3.38 21.85
Op 20.78 6.13 21.85
Oh 18.18 5.1 21.78
O 16.86 6.68 24.09
O 20.33 4.66 24.09
O 19.46 7.18 23.85
H 17.78 4.36 22.22
Mgo 17.23 9.43 20.79
Si 17.99 7.7 23.47
Si 18.09 10.64 23.48
Omg 17.8 7.87 21.85
Omg 18.25 10.61 21.85
Oh 20.8 9.58 21.78
O 19.48 11.16 24.09
O 17.79 9.14 24.09
O 16.93 11.66 23.85
H 20.4 8.84 22.22
Al 19.83 10.92 20.79
Si 18.99 3.69 18.11
Si 18.97 9.71 18.1
Op 19.18 3.52 19.73
Omg 18.82 9.74 19.73
Oh 21.42 10.77 19.8
O 22.74 9.19 17.49
O 19.28 11.21 17.5
O 20.14 8.69 17.74
H 21.82 11.51 19.37
Al 17.21 6.44 20.79
Si 21.61 8.17 18.11
Si 21.51 5.23 18.1
Op 21.81 8 19.73
Op 21.36 5.26 19.73
Oh 18.8 6.29 19.8
O 20.12 4.71 17.49
O 21.81 6.73 17.5
O 22.67 4.21 17.74
H 19.2 7.03 19.37
Al 24.93 4.95 20.79
Si 25.69 3.21 23.47
Si 25.79 6.16 23.48
Op 25.5 3.38 21.85
Op 25.94 6.13 21.85
Oh 23.34 5.1 21.78
O 22.02 6.68 24.09
O 25.49 4.66 24.09
O 24.62 7.18 23.85
H 22.94 4.36 22.22
Al 22.39 9.43 20.79
Si 23.15 7.7 23.47
Si 23.25 10.64 23.48
Op 22.96 7.87 21.85
Omg 23.41 10.61 21.85
Ohmg 25.96 9.58 21.78
O 24.64 11.16 24.09
O 22.95 9.14 24.09
O 22.09 11.66 23.85
H 25.56 8.84 22.22
Mgo 24.99 10.92 20.79
Si 24.15 3.69 18.11
Si 24.13 9.71 18.1
Op 24.34 3.52 19.73
Omg 23.98 9.74 19.73
Ohmg 26.58 10.77 19.8
O 27.9 9.19 17.49
O 24.44 11.21 17.5
O 25.3 8.69 17.74
H 26.98 11.51 19.37
Al 22.37 6.44 20.79
Si 26.77 8.17 18.11
Si 26.67 5.23 18.1
Op 26.97 8 19.73
Op 26.52 5.26 19.73
Oh 23.96 6.29 19.8
O 25.28 4.71 17.49
O 26.97 6.73 17.5
O 27.83 4.21 17.74
H 24.36 7.03 19.37
Mgo 30.09 4.95 20.79
Si 30.85 3.21 23.47
Si 30.95 6.16 23.48
Omg 30.66 3.38 21.85
Omg 0.14 6.13 21.85
Ohmg 28.5 5.1 21.78
O 27.18 6.68 24.09
O 30.65 4.66 24.09
O 29.78 7.18 23.85
H 28.1 4.36 22.22
Al 27.55 9.43 20.79
Si 28.31 7.7 23.47
Si 28.41 10.64 23.48
Op 28.12 7.87 21.85
Op 28.57 10.61 21.85
Oh 0.16 9.58 21.78
O 29.8 11.16 24.09
O 28.11 9.14 24.09
O 27.25 11.66 23.85
H 30.72 8.84 22.22
Al 30.15 10.92 20.79
Si 29.31 3.69 18.11
Si 29.29 9.71 18.1
Omg 29.5 3.52 19.73
Op 29.14 9.74 19.73
Oh 0.78 10.77 19.8
O 2.1 9.19 17.49
O 29.6 11.21 17.5
O 30.46 8.69 17.74
H 1.18 11.51 19.37
Al 27.53 6.44 20.79
Si 0.97 8.17 18.11
Si 0.87 5.23 18.1
Op 1.17 8 19.73
Omg 0.72 5.26 19.73
Ohmg 29.12 6.29 19.8
O 30.44 4.71 17.49
O 1.17 6.73 17.5
O 2.03 4.21 17.74
H 29.52 7.03 19.37
Al 4.37 13.92 20.79
Si 5.13 12.18 23.47
Si 5.23 15.13 23.48
Op 4.94 12.35 21.85
Op 5.39 15.09 21.85
Oh 2.78 14.07 21.78
O 1.46 15.65 24.09
O 4.93 13.63 24.09
O 4.07 16.14 23.85
H 2.38 13.32 22.22
Mgo 1.84 18.4 20.79
Si 2.59 16.66 23.47
Si 2.7 19.61 23.48
Omg 2.4 16.83 21.85
Omg 2.85 19.58 21.85
Oh 5.41 18.55 21.78
O 4.09 20.13 24.09
O 2.39 18.11 24.09
O 1.53 20.63 23.85
H 5.01 17.8 22.22
Al 4.44 19.89 20.79
Si 3.59 12.66 18.11
Si 3.58 18.68 18.1
Op 3.79 12.49 19.73
Omg 3.42 18.71 19.73
Oh 6.03 19.73 19.8
O 7.35 18.16 17.49
O 3.88 20.18 17.5
O 4.74 17.66 17.74
H 6.43 20.48 19.37
Al 1.81 15.4 20.79
Si 6.22 17.14 18.11
Si 6.11 14.19 18.1
Op 6.41 16.97 19.73
Op 5.96 14.22 19.73
Oh 3.4 15.25 19.8
O 4.72 13.67 17.49
O 6.42 15.69 17.5
O 7.28 13.17 17.74
H 3.8 16 19.37
Mgo 9.53 13.92 20.79
Si 10.29 12.18 23.47
Si 10.39 15.13 23.48
Omg 10.1 12.35 21.85
Omg 10.55 15.09 21.85
Ohmg 7.94 14.07 21.78
O 6.62 15.65 24.09
O 10.09 13.63 24.09
O 9.23 16.14 23.85
H 7.54 13.32 22.22
Al 7 18.4 20.79
Si 7.75 16.66 23.47
Si 7.86 19.61 23.48
Op 7.56 16.83 21.85
Op 8.01 19.58 21.85
Oh 10.57 18.55 21.78
O 9.25 20.13 24.09
O 7.55 18.11 24.09
O 6.69 20.63 23.85
H 10.17 17.8 22.22
Al 9.6 19.89 20.79
Si 8.75 12.66 18.11
Si 8.74 18.68 18.1
Omg 8.95 12.49 19.73
Op 8.58 18.71 19.73
Oh 11.19 19.73 19.8
O 12.51 18.16 17.49
O 9.04 20.18 17.5
O 9.9 17.66 17.74
H 11.59 20.48 19.37
Al 6.97 15.4 20.79
Si 11.38 17.14 18.11
Si 11.27 14.19 18.1
Op 11.57 16.97 19.73
Omg 11.12 14.22 19.73
Ohmg 8.56 15.25 19.8
O 9.88 13.67 17.49
O 11.58 15.69 17.5
O 12.44 13.17 17.74
H 8.96 16 19.37
Al 14.69 13.92 20.79
Si 15.45 12.18 23.47
Si 15.55 15.13 23.48
Op 15.26 12.35 21.85
Omg 15.71 15.09 21.85
Oh 13.1 14.07 21.78
O 11.78 15.65 24.09
O 15.25 13.63 24.09
O 14.39 16.14 23.85
H 12.7 13.32 22.22
Al 12.16 18.4 20.79
Si 12.91 16.66 23.47
Si 13.02 19.61 23.48
Op 12.72 16.83 21.85
Op 13.17 19.58 21.85
Oh 15.73 18.55 21.78
O 14.41 20.13 24.09
O 12.71 18.11 24.09
O 11.85 20.63 23.85
H 15.33 17.8 22.22
Al 14.76 19.89 20.79
Si 13.91 12.66 18.11
Si 13.9 18.68 18.1
Op 14.11 12.49 19.73
Op 13.74 18.71 19.73
Oh 16.35 19.73 19.8
O 17.67 18.16 17.49
O 14.2 20.18 17.5
O 15.06 17.66 17.74
H 16.75 20.48 19.37
Al 12.13 15.4 20.79
Si 16.54 17.14 18.11
Si 16.43 14.19 18.1
Omg 16.73 16.97 19.73
Omg 16.28 14.22 19.73
Oh 13.72 15.25 19.8
O 15.04 13.67 17.49
O 16.74 15.69 17.5
O 17.6 13.17 17.74
H 14.12 16 19.37
Al 19.85 13.92 20.79
Si 20.61 12.18 23.47
Si 20.71 15.13 23.48
Op 20.42 12.35 21.85
Op 20.87 15.09 21.85
Ohmg 18.26 14.07 21.78
O 16.94 15.65 24.09
O 20.41 13.63 24.09
O 19.55 16.14 23.85
H 17.86 13.32 22.22
Al 17.32 18.4 20.79
Si 18.07 16.66 23.47
Si 18.18 19.61 23.48
Omg 17.88 16.83 21.85
Op 18.33 19.58 21.85
Oh 20.89 18.55 21.78
O 19.57 20.13 24.09
O 17.87 18.11 24.09
O 17.01 20.63 23.85
H 20.49 17.8 22.22
Al 19.92 19.89 20.79
Si 19.07 12.66 18.11
Si 19.06 18.68 18.1
Op 19.27 12.49 19.73
Op 18.9 18.71 19.73
Oh 21.51 19.73 19.8
O 22.83 18.16 17.49
O 19.36 20.18 17.5
O 20.22 17.66 17.74
H 21.91 20.48 19.37
Mgo 17.29 15.4 20.79
Si 21.7 17.14 18.11
Si 21.59 14.19 18.1
Op 21.89 16.97 19.73
Op 21.44 14.22 19.73
Ohmg 18.88 15.25 19.8
O 20.2 13.67 17.49
O 21.9 15.69 17.5
O 22.76 13.17 17.74
H 19.28 16 19.37
Al 25.01 13.92 20.79
Si 25.77 12.18 23.47
Si 25.87 15.13 23.48
Omg 25.58 12.35 21.85
Op 26.03 15.09 21.85
Oh 23.42 14.07 21.78
O 22.1 15.65 24.09
O 25.57 13.63 24.09
O 24.71 16.14 23.85
H 23.02 13.32 22.22
Al 22.48 18.4 20.79
Si 23.23 16.66 23.47
Si 23.34 19.61 23.48
Op 23.04 16.83 21.85
Op 23.49 19.58 21.85
Oh 26.05 18.55 21.78
O 24.73 20.13 24.09
O 23.03 18.11 24.09
O 22.17 20.63 23.85
H 25.65 17.8 22.22
Al 25.08 19.89 20.79
Si 24.23 12.66 18.11
Si 24.22 18.68 18.1
Omg 24.43 12.49 19.73
Op 24.06 18.71 19.73
Oh 26.67 19.73 19.8
O 27.99 18.16 17.49
O 24.52 20.18 17.5
O 25.38 17.66 17.74
H 27.07 20.48 19.37
Al 22.45 15.4 20.79
Si 26.86 17.14 18.11
Si 26.75 14.19 18.1
Op 27.05 16.97 19.73
Op 26.6 14.22 19.73
Oh 24.04 15.25 19.8
O 25.36 13.67 17.49
O 27.06 15.69 17.5
O 27.92 13.17 17.74
H 24.44 16 19.37
Al 30.17 13.92 20.79
Si 30.93 12.18 23.47
Si 0.07 15.13 23.48
Op 30.74 12.35 21.85
Op 0.23 15.09 21.85
Oh 28.58 14.07 21.78
O 27.26 15.65 24.09
O 30.73 13.63 24.09
O 29.87 16.14 23.85
H 28.18 13.32 22.22
Al 27.64 18.4 20.79
Si 28.39 16.66 23.47
Si 28.5 19.61 23.48
Op 28.2 16.83 21.85
Op 28.65 19.58 21.85
Ohmg 0.25 18.55 21.78
O 29.89 20.13 24.09
O 28.19 18.11 24.09
O 27.33 20.63 23.85
H 30.81 17.8 22.22
Al 30.24 19.89 20.79
Si 29.39 12.66 18.11
Si 29.38 18.68 18.1
Op 29.59 12.49 19.73
Op 29.22 18.71 19.73
Ohmg 0.87 19.73 19.8
O 2.19 18.16 17.49
O 29.68 20.18 17.5
O 30.54 17.66 17.74
H 1.27 20.48 19.37
Al 27.61 15.4 20.79
Si 1.06 17.14 18.11
Si 0.95 14.19 18.1
Omg 1.25 16.97 19.73
Op 0.8 14.22 19.73
Oh 29.2 15.25 19.8
O 30.52 13.67 17.49
O 1.26 15.69 17.5
O 2.12 13.17 17.74
H 29.6 16 19.37
Al 4.46 22.88 20.79
Si 5.22 21.14 23.47
Si 5.32 24.09 23.48
Op 5.02 21.32 21.85
Op 5.47 24.06 21.85
Ohmg 2.87 23.03 21.78
O 1.55 24.61 24.09
O 5.01 22.59 24.09
O 4.15 25.11 23.85
H 2.47 22.29 22.22
Al 1.92 27.36 20.79
Si 2.68 25.63 23.47
Si 2.78 28.58 23.48
Omg 2.49 25.8 21.85
Op 2.93 28.54 21.85
Oh 5.49 27.52 21.78
O 4.17 29.09 24.09
O 2.48 27.07 24.09
O 1.62 29.59 23.85
H 5.09 26.77 22.22
Al 4.52 28.85 20.79
Si 3.68 21.62 18.11
Si 3.66 27.64 18.1
Op 3.87 21.45 19.73
Op 3.51 27.67 19.73
Oh 6.11 28.7 19.8
O 7.43 27.12 17.49
O 3.96 29.14 17.5
O 4.82 26.62 17.74
H 6.51 29.45 19.37
Mgo 1.9 24.37 20.79
Si 6.3 26.11 18.11
Si 6.2 23.16 18.1
Op 6.49 25.93 19.73
Op 6.05 23.19 19.73
Ohmg 3.49 24.22 19.8
O 4.81 22.64 17.49
O 6.5 24.66 17.5
O 7.36 22.14 17.74
H 3.89 24.96 19.37
Al 9.62 22.88 20.79
Si 10.38 21.14 23.47
Si 10.48 24.09 23.48
Op 10.18 21.32 21.85
Omg 10.63 24.06 21.85
Oh 8.03 23.03 21.78
O 6.71 24.61 24.09
O 10.17 22.59 24.09
O 9.31 25.11 23.85
H 7.63 22.29 22.22
Al 7.08 27.36 20.79
Si 7.84 25.63 23.47
Si 7.94 28.58 23.48
Op 7.65 25.8 21.85
Op 8.09 28.54 21.85
Oh 10.65 27.52 21.78
O 9.33 29.09 24.09
O 7.64 27.07 24.09
O 6.78 29.59 23.85
H 10.25 26.77 22.22
Al 9.68 28.85 20.79
Si 8.84 21.62 18.11
Si 8.82 27.64 18.1
Op 9.03 21.45 19.73
Op 8.67 27.67 19.73
Oh 11.27 28.7 19.8
O 12.59 27.12 17.49
O 9.12 29.14 17.5
O 9.98 26.62 17.74
H 11.67 29.45 19.37
Al 7.06 24.37 20.79
Si 11.46 26.11 18.11
Si 11.36 23.16 18.1
Omg 11.65 25.93 19.73
Omg 11.21 23.19 19.73
Oh 8.65 24.22 19.8
O 9.97 22.64 17.49
O 11.66 24.66 17.5
O 12.52 22.14 17.74
H 9.05 24.96 19.37
Al 14.78 22.88 20.79
Si 15.54 21.14 23.47
Si 15.64 24.09 23.48
Op 15.34 21.32 21.85
Op 15.79 24.06 21.85
Ohmg 13.19 23.03 21.78
O 11.87 24.61 24.09
O 15.33 22.59 24.09
O 14.47 25.11 23.85
H 12.79 22.29 22.22
Al 12.24 27.36 20.79
Si 13 25.63 23.47
Si 13.1 28.58 23.48
Omg 12.81 25.8 21.85
Op 13.25 28.54 21.85
Ohmg 15.81 27.52 21.78
O 14.49 29.09 24.09
O 12.8 27.07 24.09
O 11.94 29.59 23.85
H 15.41 26.77 22.22
Al 14.84 28.85 20.79
Si 14 21.62 18.11
Si 13.98 27.64 18.1
Op 14.19 21.45 19.73
Op 13.83 27.67 19.73
Ohmg 16.43 28.7 19.8
O 17.75 27.12 17.49
O 14.28 29.14 17.5
O 15.14 26.62 17.74
H 16.83 29.45 19.37
Mgo 12.22 24.37 20.79
Si 16.62 26.11 18.11
Si 16.52 23.16 18.1
Omg 16.81 25.93 19.73
Op 16.37 23.19 19.73
Ohmg 13.81 24.22 19.8
O 15.13 22.64 17.49
O 16.82 24.66 17.5
O 17.68 22.14 17.74