LAMMPS input data file #07-Feb-2020 10:38:14

10592 atoms
5952 bonds
2880 angles
0 dihedrals
   
12 atom types
3 bond types
1 angle types
0 dihedral types

0 30.96 xlo xhi
0 35.8633 ylo yhi
0 90 zlo zhi
       
Masses 

1 26.98154 # Al
2 1.00794 # H
3 1.00794 # Hw
4 24.305 # Mgo
5 22.98977 # Na
6 15.99941 # Ob
7 15.99941 # Oh
8 15.99941 # Ohmg
9 15.99941 # Omg
10 15.99941 # Op
11 15.99941 # Ow
12 28.08538 # Si

Pair Coeffs 

1 5.766555E-08 4.271236 # Al
2 0.000000E+00 0.000000 # H
3 0.000000E+00 0.000000 # Hw
4 3.915690E-08 5.264321 # Mgo
5 1.529199E-02 2.159538 # Na
6 6.939839E-03 3.385415 # Ob
7 6.738778E-03 3.165541 # Oh
8 6.738778E-03 3.165541 # Ohmg
9 6.738778E-03 3.165541 # Omg
10 6.738778E-03 3.165541 # Op
11 6.738778E-03 3.165541 # Ow
12 7.981159E-08 3.302027 # Si

Atoms 

	1	1	1	 1.57500	 0.00000	 0.00000	 0.00000
	2	1	12	 2.10000	 0.76000	34.12330	 2.68000
	3	1	12	 2.10000	 0.86000	 1.21000	 2.69000
	4	1	10	-1.05000	 0.57000	34.29330	 1.06000
	5	1	10	-1.05000	 1.01000	 1.18000	 1.06000
	6	1	7	-0.95000	29.37000	 0.15000	 0.99000
	7	1	6	-1.05000	28.05000	 1.73000	 3.30000
	8	1	6	-1.05000	 0.56000	35.57330	 3.30000
	9	1	6	-1.05000	30.65000	 2.23000	 3.06000
	10	1	2	 0.42500	28.97000	35.27330	 1.43000
	11	1	1	 1.57500	28.42000	 4.48000	 0.00000
	12	1	12	 2.10000	29.18000	 2.75000	 2.68000
	13	1	12	 2.10000	29.28000	 5.69000	 2.69000
	14	1	10	-1.05000	28.99000	 2.92000	 1.06000
	15	1	10	-1.05000	29.44000	 5.66000	 1.06000
	16	1	8	-1.08090	 1.03000	 4.63000	 0.99000
	17	1	6	-1.05000	30.67000	 6.21000	 3.30000
	18	1	6	-1.05000	28.98000	 4.19000	 3.30000
	19	1	6	-1.05000	28.12000	 6.71000	 3.06000
	20	1	2	 0.42500	 0.63000	 3.89000	 1.43000
	21	1	1	 1.57500	 0.06000	 5.97000	 0.00000
	22	1	12	 2.10000	30.18000	34.60330	87.32000
	23	1	12	 2.10000	30.16000	 4.76000	87.31000
	24	1	10	-1.05000	30.37000	34.43330	88.94000
	25	1	10	-1.05000	30.01000	 4.79000	88.94000
	26	1	8	-1.08090	 1.65000	 5.82000	89.01000
	27	1	6	-1.05000	 2.97000	 4.24000	86.70000
	28	1	6	-1.05000	30.47000	 6.26000	86.71000
	29	1	6	-1.05000	 0.37000	 3.74000	86.95000
	30	1	2	 0.42500	 2.05000	 6.56000	88.58000
	31	1	1	 1.57500	28.40000	 1.49000	 0.00000
	32	1	12	 2.10000	 1.84000	 3.22000	87.32000
	33	1	12	 2.10000	 1.74000	 0.28000	87.31000
	34	1	9	-1.18080	 2.04000	 3.05000	88.94000
	35	1	10	-1.05000	 1.59000	 0.31000	88.94000
	36	1	7	-0.95000	29.99000	 1.34000	89.01000
	37	1	6	-1.05000	 0.35000	35.62330	86.70000
	38	1	6	-1.05000	 2.04000	 1.78000	86.71000
	39	1	6	-1.05000	 2.90000	35.12330	86.95000
	40	1	2	 0.42500	30.39000	 2.08000	88.58000
	41	1	1	 1.57500	 5.16000	 0.00000	 0.00000
	42	1	12	 2.10000	 5.92000	34.12330	 2.68000
	43	1	12	 2.10000	 6.02000	 1.21000	 2.69000
	44	1	10	-1.05000	 5.73000	34.29330	 1.06000
	45	1	10	-1.05000	 6.17000	 1.18000	 1.06000
	46	1	7	-0.95000	 3.57000	 0.15000	 0.99000
	47	1	6	-1.05000	 2.25000	 1.73000	 3.30000
	48	1	6	-1.05000	 5.72000	35.57330	 3.30000
	49	1	6	-1.05000	 4.85000	 2.23000	 3.06000
	50	1	2	 0.42500	 3.17000	35.27330	 1.43000
	51	1	4	 1.36000	 2.62000	 4.48000	 0.00000
	52	1	12	 2.10000	 3.38000	 2.75000	 2.68000
	53	1	12	 2.10000	 3.48000	 5.69000	 2.69000
	54	1	9	-1.18080	 3.19000	 2.92000	 1.06000
	55	1	9	-1.18080	 3.64000	 5.66000	 1.06000
	56	1	7	-0.95000	 6.19000	 4.63000	 0.99000
	57	1	6	-1.05000	 4.87000	 6.21000	 3.30000
	58	1	6	-1.05000	 3.18000	 4.19000	 3.30000
	59	1	6	-1.05000	 2.32000	 6.71000	 3.06000
	60	1	2	 0.42500	 5.79000	 3.89000	 1.43000
	61	1	1	 1.57500	 5.22000	 5.97000	 0.00000
	62	1	12	 2.10000	 4.38000	34.60330	87.32000
	63	1	12	 2.10000	 4.36000	 4.76000	87.31000
	64	1	10	-1.05000	 4.57000	34.43330	88.94000
	65	1	9	-1.18080	 4.21000	 4.79000	88.94000
	66	1	7	-0.95000	 6.81000	 5.82000	89.01000
	67	1	6	-1.05000	 8.13000	 4.24000	86.70000
	68	1	6	-1.05000	 4.67000	 6.26000	86.71000
	69	1	6	-1.05000	 5.53000	 3.74000	86.95000
	70	1	2	 0.42500	 7.21000	 6.56000	88.58000
	71	1	1	 1.57500	 2.60000	 1.49000	 0.00000
	72	1	12	 2.10000	 7.00000	 3.22000	87.32000
	73	1	12	 2.10000	 6.90000	 0.28000	87.31000
	74	1	10	-1.05000	 7.20000	 3.05000	88.94000
	75	1	10	-1.05000	 6.75000	 0.31000	88.94000
	76	1	7	-0.95000	 4.19000	 1.34000	89.01000
	77	1	6	-1.05000	 5.51000	35.62330	86.70000
	78	1	6	-1.05000	 7.20000	 1.78000	86.71000
	79	1	6	-1.05000	 8.06000	35.12330	86.95000
	80	1	2	 0.42500	 4.59000	 2.08000	88.58000
	81	1	1	 1.57500	10.32000	 0.00000	 0.00000
	82	1	12	 2.10000	11.08000	34.12330	 2.68000
	83	1	12	 2.10000	11.18000	 1.21000	 2.69000
	84	1	9	-1.18080	10.89000	34.29330	 1.06000
	85	1	10	-1.05000	11.33000	 1.18000	 1.06000
	86	1	7	-0.95000	 8.73000	 0.15000	 0.99000
	87	1	6	-1.05000	 7.41000	 1.73000	 3.30000
	88	1	6	-1.05000	10.88000	35.57330	 3.30000
	89	1	6	-1.05000	10.01000	 2.23000	 3.06000
	90	1	2	 0.42500	 8.33000	35.27330	 1.43000
	91	1	1	 1.57500	 7.78000	 4.48000	 0.00000
	92	1	12	 2.10000	 8.54000	 2.75000	 2.68000
	93	1	12	 2.10000	 8.64000	 5.69000	 2.69000
	94	1	10	-1.05000	 8.35000	 2.92000	 1.06000
	95	1	10	-1.05000	 8.80000	 5.66000	 1.06000
	96	1	7	-0.95000	11.35000	 4.63000	 0.99000
	97	1	6	-1.05000	10.03000	 6.21000	 3.30000
	98	1	6	-1.05000	 8.34000	 4.19000	 3.30000
	99	1	6	-1.05000	 7.48000	 6.71000	 3.06000
	100	1	2	 0.42500	10.95000	 3.89000	 1.43000
	101	1	1	 1.57500	10.38000	 5.97000	 0.00000
	102	1	12	 2.10000	 9.54000	34.60330	87.32000
	103	1	12	 2.10000	 9.52000	 4.76000	87.31000
	104	1	9	-1.18080	 9.73000	34.43330	88.94000
	105	1	10	-1.05000	 9.37000	 4.79000	88.94000
	106	1	7	-0.95000	11.97000	 5.82000	89.01000
	107	1	6	-1.05000	13.29000	 4.24000	86.70000
	108	1	6	-1.05000	 9.83000	 6.26000	86.71000
	109	1	6	-1.05000	10.69000	 3.74000	86.95000
	110	1	2	 0.42500	12.37000	 6.56000	88.58000
	111	1	1	 1.57500	 7.76000	 1.49000	 0.00000
	112	1	12	 2.10000	12.16000	 3.22000	87.32000
	113	1	12	 2.10000	12.06000	 0.28000	87.31000
	114	1	10	-1.05000	12.36000	 3.05000	88.94000
	115	1	10	-1.05000	11.91000	 0.31000	88.94000
	116	1	7	-0.95000	 9.35000	 1.34000	89.01000
	117	1	6	-1.05000	10.67000	35.62330	86.70000
	118	1	6	-1.05000	12.36000	 1.78000	86.71000
	119	1	6	-1.05000	13.22000	35.12330	86.95000
	120	1	2	 0.42500	 9.75000	 2.08000	88.58000
	121	1	4	 1.36000	15.48000	 0.00000	 0.00000
	122	1	12	 2.10000	16.24000	34.12330	 2.68000
	123	1	12	 2.10000	16.34000	 1.21000	 2.69000
	124	1	9	-1.18080	16.05000	34.29330	 1.06000
	125	1	9	-1.18080	16.49000	 1.18000	 1.06000
	126	1	8	-1.08090	13.89000	 0.15000	 0.99000
	127	1	6	-1.05000	12.57000	 1.73000	 3.30000
	128	1	6	-1.05000	16.04000	35.57330	 3.30000
	129	1	6	-1.05000	15.17000	 2.23000	 3.06000
	130	1	2	 0.42500	13.49000	35.27330	 1.43000
	131	1	1	 1.57500	12.94000	 4.48000	 0.00000
	132	1	12	 2.10000	13.70000	 2.75000	 2.68000
	133	1	12	 2.10000	13.80000	 5.69000	 2.69000
	134	1	10	-1.05000	13.51000	 2.92000	 1.06000
	135	1	10	-1.05000	13.96000	 5.66000	 1.06000
	136	1	7	-0.95000	16.51000	 4.63000	 0.99000
	137	1	6	-1.05000	15.19000	 6.21000	 3.30000
	138	1	6	-1.05000	13.50000	 4.19000	 3.30000
	139	1	6	-1.05000	12.64000	 6.71000	 3.06000
	140	1	2	 0.42500	16.11000	 3.89000	 1.43000
	141	1	1	 1.57500	15.54000	 5.97000	 0.00000
	142	1	12	 2.10000	14.70000	34.60330	87.32000
	143	1	12	 2.10000	14.68000	 4.76000	87.31000
	144	1	9	-1.18080	14.89000	34.43330	88.94000
	145	1	10	-1.05000	14.53000	 4.79000	88.94000
	146	1	7	-0.95000	17.13000	 5.82000	89.01000
	147	1	6	-1.05000	18.45000	 4.24000	86.70000
	148	1	6	-1.05000	14.99000	 6.26000	86.71000
	149	1	6	-1.05000	15.85000	 3.74000	86.95000
	150	1	2	 0.42500	17.53000	 6.56000	88.58000
	151	1	1	 1.57500	12.92000	 1.49000	 0.00000
	152	1	12	 2.10000	17.32000	 3.22000	87.32000
	153	1	12	 2.10000	17.22000	 0.28000	87.31000
	154	1	10	-1.05000	17.52000	 3.05000	88.94000
	155	1	9	-1.18080	17.07000	 0.31000	88.94000
	156	1	8	-1.08090	14.51000	 1.34000	89.01000
	157	1	6	-1.05000	15.83000	35.62330	86.70000
	158	1	6	-1.05000	17.52000	 1.78000	86.71000
	159	1	6	-1.05000	18.38000	35.12330	86.95000
	160	1	2	 0.42500	14.91000	 2.08000	88.58000
	161	1	1	 1.57500	20.64000	 0.00000	 0.00000
	162	1	12	 2.10000	21.40000	34.12330	 2.68000
	163	1	12	 2.10000	21.50000	 1.21000	 2.69000
	164	1	9	-1.18080	21.21000	34.29330	 1.06000
	165	1	10	-1.05000	21.65000	 1.18000	 1.06000
	166	1	7	-0.95000	19.05000	 0.15000	 0.99000
	167	1	6	-1.05000	17.73000	 1.73000	 3.30000
	168	1	6	-1.05000	21.20000	35.57330	 3.30000
	169	1	6	-1.05000	20.33000	 2.23000	 3.06000
	170	1	2	 0.42500	18.65000	35.27330	 1.43000
	171	1	1	 1.57500	18.10000	 4.48000	 0.00000
	172	1	12	 2.10000	18.86000	 2.75000	 2.68000
	173	1	12	 2.10000	18.96000	 5.69000	 2.69000
	174	1	10	-1.05000	18.67000	 2.92000	 1.06000
	175	1	9	-1.18080	19.12000	 5.66000	 1.06000
	176	1	8	-1.08090	21.67000	 4.63000	 0.99000
	177	1	6	-1.05000	20.35000	 6.21000	 3.30000
	178	1	6	-1.05000	18.66000	 4.19000	 3.30000
	179	1	6	-1.05000	17.80000	 6.71000	 3.06000
	180	1	2	 0.42500	21.27000	 3.89000	 1.43000
	181	1	4	 1.36000	20.70000	 5.97000	 0.00000
	182	1	12	 2.10000	19.86000	34.60330	87.32000
	183	1	12	 2.10000	19.84000	 4.76000	87.31000
	184	1	9	-1.18080	20.05000	34.43330	88.94000
	185	1	9	-1.18080	19.69000	 4.79000	88.94000
	186	1	8	-1.08090	22.29000	 5.82000	89.01000
	187	1	6	-1.05000	23.61000	 4.24000	86.70000
	188	1	6	-1.05000	20.15000	 6.26000	86.71000
	189	1	6	-1.05000	21.01000	 3.74000	86.95000
	190	1	2	 0.42500	22.69000	 6.56000	88.58000
	191	1	1	 1.57500	18.08000	 1.49000	 0.00000
	192	1	12	 2.10000	22.48000	 3.22000	87.32000
	193	1	12	 2.10000	22.38000	 0.28000	87.31000
	194	1	10	-1.05000	22.68000	 3.05000	88.94000
	195	1	10	-1.05000	22.23000	 0.31000	88.94000
	196	1	7	-0.95000	19.67000	 1.34000	89.01000
	197	1	6	-1.05000	20.99000	35.62330	86.70000
	198	1	6	-1.05000	22.68000	 1.78000	86.71000
	199	1	6	-1.05000	23.54000	35.12330	86.95000
	200	1	2	 0.42500	20.07000	 2.08000	88.58000
	201	1	1	 1.57500	25.80000	 0.00000	 0.00000
	202	1	12	 2.10000	26.56000	34.12330	 2.68000
	203	1	12	 2.10000	26.66000	 1.21000	 2.69000
	204	1	10	-1.05000	26.37000	34.29330	 1.06000
	205	1	10	-1.05000	26.81000	 1.18000	 1.06000
	206	1	7	-0.95000	24.21000	 0.15000	 0.99000
	207	1	6	-1.05000	22.89000	 1.73000	 3.30000
	208	1	6	-1.05000	26.36000	35.57330	 3.30000
	209	1	6	-1.05000	25.49000	 2.23000	 3.06000
	210	1	2	 0.42500	23.81000	35.27330	 1.43000
	211	1	1	 1.57500	23.26000	 4.48000	 0.00000
	212	1	12	 2.10000	24.02000	 2.75000	 2.68000
	213	1	12	 2.10000	24.12000	 5.69000	 2.69000
	214	1	10	-1.05000	23.83000	 2.92000	 1.06000
	215	1	10	-1.05000	24.28000	 5.66000	 1.06000
	216	1	7	-0.95000	26.83000	 4.63000	 0.99000
	217	1	6	-1.05000	25.51000	 6.21000	 3.30000
	218	1	6	-1.05000	23.82000	 4.19000	 3.30000
	219	1	6	-1.05000	22.96000	 6.71000	 3.06000
	220	1	2	 0.42500	26.43000	 3.89000	 1.43000
	221	1	1	 1.57500	25.86000	 5.97000	 0.00000
	222	1	12	 2.10000	25.02000	34.60330	87.32000
	223	1	12	 2.10000	25.00000	 4.76000	87.31000
	224	1	10	-1.05000	25.21000	34.43330	88.94000
	225	1	10	-1.05000	24.85000	 4.79000	88.94000
	226	1	7	-0.95000	27.45000	 5.82000	89.01000
	227	1	6	-1.05000	28.77000	 4.24000	86.70000
	228	1	6	-1.05000	25.31000	 6.26000	86.71000
	229	1	6	-1.05000	26.17000	 3.74000	86.95000
	230	1	2	 0.42500	27.85000	 6.56000	88.58000
	231	1	1	 1.57500	23.24000	 1.49000	 0.00000
	232	1	12	 2.10000	27.64000	 3.22000	87.32000
	233	1	12	 2.10000	27.54000	 0.28000	87.31000
	234	1	10	-1.05000	27.84000	 3.05000	88.94000
	235	1	10	-1.05000	27.39000	 0.31000	88.94000
	236	1	7	-0.95000	24.83000	 1.34000	89.01000
	237	1	6	-1.05000	26.15000	35.62330	86.70000
	238	1	6	-1.05000	27.84000	 1.78000	86.71000
	239	1	6	-1.05000	28.70000	35.12330	86.95000
	240	1	2	 0.42500	25.23000	 2.08000	88.58000
	241	1	1	 1.57500	 0.08000	 8.97000	 0.00000
	242	1	12	 2.10000	 0.84000	 7.23000	 2.68000
	243	1	12	 2.10000	 0.94000	10.18000	 2.69000
	244	1	10	-1.05000	 0.65000	 7.40000	 1.06000
	245	1	9	-1.18080	 1.10000	10.14000	 1.06000
	246	1	7	-0.95000	29.45000	 9.12000	 0.99000
	247	1	6	-1.05000	28.13000	10.70000	 3.30000
	248	1	6	-1.05000	 0.64000	 8.68000	 3.30000
	249	1	6	-1.05000	30.74000	11.19000	 3.06000
	250	1	2	 0.42500	29.05000	 8.37000	 1.43000
	251	1	1	 1.57500	28.51000	13.45000	 0.00000
	252	1	12	 2.10000	29.26000	11.71000	 2.68000
	253	1	12	 2.10000	29.37000	14.66000	 2.69000
	254	1	10	-1.05000	29.07000	11.88000	 1.06000
	255	1	10	-1.05000	29.52000	14.63000	 1.06000
	256	1	7	-0.95000	 1.12000	13.60000	 0.99000
	257	1	6	-1.05000	30.76000	15.18000	 3.30000
	258	1	6	-1.05000	29.06000	13.16000	 3.30000
	259	1	6	-1.05000	28.20000	15.68000	 3.06000
	260	1	2	 0.42500	 0.72000	12.85000	 1.43000
	261	1	1	 1.57500	 0.15000	14.94000	 0.00000
	262	1	12	 2.10000	30.26000	 7.71000	87.32000
	263	1	12	 2.10000	30.25000	13.73000	87.31000
	264	1	10	-1.05000	30.46000	 7.54000	88.94000
	265	1	10	-1.05000	30.09000	13.76000	88.94000
	266	1	7	-0.95000	 1.74000	14.78000	89.01000
	267	1	6	-1.05000	 3.06000	13.21000	86.70000
	268	1	6	-1.05000	30.55000	15.23000	86.71000
	269	1	6	-1.05000	 0.45000	12.71000	86.95000
	270	1	2	 0.42500	 2.14000	15.53000	88.58000
	271	1	1	 1.57500	28.48000	10.45000	 0.00000
	272	1	12	 2.10000	 1.93000	12.19000	87.32000
	273	1	12	 2.10000	 1.82000	 9.24000	87.31000
	274	1	9	-1.18080	 2.12000	12.02000	88.94000
	275	1	9	-1.18080	 1.67000	 9.27000	88.94000
	276	1	7	-0.95000	30.07000	10.30000	89.01000
	277	1	6	-1.05000	 0.43000	 8.72000	86.70000
	278	1	6	-1.05000	 2.13000	10.74000	86.71000
	279	1	6	-1.05000	 2.99000	 8.22000	86.95000
	280	1	2	 0.42500	30.47000	11.05000	88.58000
	281	1	1	 1.57500	 5.24000	 8.97000	 0.00000
	282	1	12	 2.10000	 6.00000	 7.23000	 2.68000
	283	1	12	 2.10000	 6.10000	10.18000	 2.69000
	284	1	10	-1.05000	 5.81000	 7.40000	 1.06000
	285	1	10	-1.05000	 6.26000	10.14000	 1.06000
	286	1	8	-1.08090	 3.65000	 9.12000	 0.99000
	287	1	6	-1.05000	 2.33000	10.70000	 3.30000
	288	1	6	-1.05000	 5.80000	 8.68000	 3.30000
	289	1	6	-1.05000	 4.94000	11.19000	 3.06000
	290	1	2	 0.42500	 3.25000	 8.37000	 1.43000
	291	1	1	 1.57500	 2.71000	13.45000	 0.00000
	292	1	12	 2.10000	 3.46000	11.71000	 2.68000
	293	1	12	 2.10000	 3.57000	14.66000	 2.69000
	294	1	9	-1.18080	 3.27000	11.88000	 1.06000
	295	1	10	-1.05000	 3.72000	14.63000	 1.06000
	296	1	7	-0.95000	 6.28000	13.60000	 0.99000
	297	1	6	-1.05000	 4.96000	15.18000	 3.30000
	298	1	6	-1.05000	 3.26000	13.16000	 3.30000
	299	1	6	-1.05000	 2.40000	15.68000	 3.06000
	300	1	2	 0.42500	 5.88000	12.85000	 1.43000
	301	1	1	 1.57500	 5.31000	14.94000	 0.00000
	302	1	12	 2.10000	 4.46000	 7.71000	87.32000
	303	1	12	 2.10000	 4.45000	13.73000	87.31000
	304	1	10	-1.05000	 4.66000	 7.54000	88.94000
	305	1	10	-1.05000	 4.29000	13.76000	88.94000
	306	1	7	-0.95000	 6.90000	14.78000	89.01000
	307	1	6	-1.05000	 8.22000	13.21000	86.70000
	308	1	6	-1.05000	 4.75000	15.23000	86.71000
	309	1	6	-1.05000	 5.61000	12.71000	86.95000
	310	1	2	 0.42500	 7.30000	15.53000	88.58000
	311	1	4	 1.36000	 2.68000	10.45000	 0.00000
	312	1	12	 2.10000	 7.09000	12.19000	87.32000
	313	1	12	 2.10000	 6.98000	 9.24000	87.31000
	314	1	10	-1.05000	 7.28000	12.02000	88.94000
	315	1	10	-1.05000	 6.83000	 9.27000	88.94000
	316	1	8	-1.08090	 4.27000	10.30000	89.01000
	317	1	6	-1.05000	 5.59000	 8.72000	86.70000
	318	1	6	-1.05000	 7.29000	10.74000	86.71000
	319	1	6	-1.05000	 8.15000	 8.22000	86.95000
	320	1	2	 0.42500	 4.67000	11.05000	88.58000
	321	1	1	 1.57500	10.40000	 8.97000	 0.00000
	322	1	12	 2.10000	11.16000	 7.23000	 2.68000
	323	1	12	 2.10000	11.26000	10.18000	 2.69000
	324	1	10	-1.05000	10.97000	 7.40000	 1.06000
	325	1	9	-1.18080	11.42000	10.14000	 1.06000
	326	1	7	-0.95000	 8.81000	 9.12000	 0.99000
	327	1	6	-1.05000	 7.49000	10.70000	 3.30000
	328	1	6	-1.05000	10.96000	 8.68000	 3.30000
	329	1	6	-1.05000	10.10000	11.19000	 3.06000
	330	1	2	 0.42500	 8.41000	 8.37000	 1.43000
	331	1	1	 1.57500	 7.87000	13.45000	 0.00000
	332	1	12	 2.10000	 8.62000	11.71000	 2.68000
	333	1	12	 2.10000	 8.73000	14.66000	 2.69000
	334	1	10	-1.05000	 8.43000	11.88000	 1.06000
	335	1	10	-1.05000	 8.88000	14.63000	 1.06000
	336	1	7	-0.95000	11.44000	13.60000	 0.99000
	337	1	6	-1.05000	10.12000	15.18000	 3.30000
	338	1	6	-1.05000	 8.42000	13.16000	 3.30000
	339	1	6	-1.05000	 7.56000	15.68000	 3.06000
	340	1	2	 0.42500	11.04000	12.85000	 1.43000
	341	1	1	 1.57500	10.47000	14.94000	 0.00000
	342	1	12	 2.10000	 9.62000	 7.71000	87.32000
	343	1	12	 2.10000	 9.61000	13.73000	87.31000
	344	1	10	-1.05000	 9.82000	 7.54000	88.94000
	345	1	10	-1.05000	 9.45000	13.76000	88.94000
	346	1	7	-0.95000	12.06000	14.78000	89.01000
	347	1	6	-1.05000	13.38000	13.21000	86.70000
	348	1	6	-1.05000	 9.91000	15.23000	86.71000
	349	1	6	-1.05000	10.77000	12.71000	86.95000
	350	1	2	 0.42500	12.46000	15.53000	88.58000
	351	1	1	 1.57500	 7.84000	10.45000	 0.00000
	352	1	12	 2.10000	12.25000	12.19000	87.32000
	353	1	12	 2.10000	12.14000	 9.24000	87.31000
	354	1	9	-1.18080	12.44000	12.02000	88.94000
	355	1	9	-1.18080	11.99000	 9.27000	88.94000
	356	1	7	-0.95000	 9.43000	10.30000	89.01000
	357	1	6	-1.05000	10.75000	 8.72000	86.70000
	358	1	6	-1.05000	12.45000	10.74000	86.71000
	359	1	6	-1.05000	13.31000	 8.22000	86.95000
	360	1	2	 0.42500	 9.83000	11.05000	88.58000
	361	1	1	 1.57500	15.56000	 8.97000	 0.00000
	362	1	12	 2.10000	16.32000	 7.23000	 2.68000
	363	1	12	 2.10000	16.42000	10.18000	 2.69000
	364	1	10	-1.05000	16.13000	 7.40000	 1.06000
	365	1	10	-1.05000	16.58000	10.14000	 1.06000
	366	1	8	-1.08090	13.97000	 9.12000	 0.99000
	367	1	6	-1.05000	12.65000	10.70000	 3.30000
	368	1	6	-1.05000	16.12000	 8.68000	 3.30000
	369	1	6	-1.05000	15.26000	11.19000	 3.06000
	370	1	2	 0.42500	13.57000	 8.37000	 1.43000
	371	1	1	 1.57500	13.03000	13.45000	 0.00000
	372	1	12	 2.10000	13.78000	11.71000	 2.68000
	373	1	12	 2.10000	13.89000	14.66000	 2.69000
	374	1	9	-1.18080	13.59000	11.88000	 1.06000
	375	1	10	-1.05000	14.04000	14.63000	 1.06000
	376	1	7	-0.95000	16.60000	13.60000	 0.99000
	377	1	6	-1.05000	15.28000	15.18000	 3.30000
	378	1	6	-1.05000	13.58000	13.16000	 3.30000
	379	1	6	-1.05000	12.72000	15.68000	 3.06000
	380	1	2	 0.42500	16.20000	12.85000	 1.43000
	381	1	1	 1.57500	15.63000	14.94000	 0.00000
	382	1	12	 2.10000	14.78000	 7.71000	87.32000
	383	1	12	 2.10000	14.77000	13.73000	87.31000
	384	1	10	-1.05000	14.98000	 7.54000	88.94000
	385	1	10	-1.05000	14.61000	13.76000	88.94000
	386	1	7	-0.95000	17.22000	14.78000	89.01000
	387	1	6	-1.05000	18.54000	13.21000	86.70000
	388	1	6	-1.05000	15.07000	15.23000	86.71000
	389	1	6	-1.05000	15.93000	12.71000	86.95000
	390	1	2	 0.42500	17.62000	15.53000	88.58000
	391	1	4	 1.36000	13.00000	10.45000	 0.00000
	392	1	12	 2.10000	17.41000	12.19000	87.32000
	393	1	12	 2.10000	17.30000	 9.24000	87.31000
	394	1	10	-1.05000	17.60000	12.02000	88.94000
	395	1	10	-1.05000	17.15000	 9.27000	88.94000
	396	1	8	-1.08090	14.59000	10.30000	89.01000
	397	1	6	-1.05000	15.91000	 8.72000	86.70000
	398	1	6	-1.05000	17.61000	10.74000	86.71000
	399	1	6	-1.05000	18.47000	 8.22000	86.95000
	400	1	2	 0.42500	14.99000	11.05000	88.58000
	401	1	1	 1.57500	20.72000	 8.97000	 0.00000
	402	1	12	 2.10000	21.48000	 7.23000	 2.68000
	403	1	12	 2.10000	21.58000	10.18000	 2.69000
	404	1	9	-1.18080	21.29000	 7.40000	 1.06000
	405	1	10	-1.05000	21.74000	10.14000	 1.06000
	406	1	7	-0.95000	19.13000	 9.12000	 0.99000
	407	1	6	-1.05000	17.81000	10.70000	 3.30000
	408	1	6	-1.05000	21.28000	 8.68000	 3.30000
	409	1	6	-1.05000	20.42000	11.19000	 3.06000
	410	1	2	 0.42500	18.73000	 8.37000	 1.43000
	411	1	1	 1.57500	18.19000	13.45000	 0.00000
	412	1	12	 2.10000	18.94000	11.71000	 2.68000
	413	1	12	 2.10000	19.05000	14.66000	 2.69000
	414	1	10	-1.05000	18.75000	11.88000	 1.06000
	415	1	10	-1.05000	19.20000	14.63000	 1.06000
	416	1	7	-0.95000	21.76000	13.60000	 0.99000
	417	1	6	-1.05000	20.44000	15.18000	 3.30000
	418	1	6	-1.05000	18.74000	13.16000	 3.30000
	419	1	6	-1.05000	17.88000	15.68000	 3.06000
	420	1	2	 0.42500	21.36000	12.85000	 1.43000
	421	1	1	 1.57500	20.79000	14.94000	 0.00000
	422	1	12	 2.10000	19.94000	 7.71000	87.32000
	423	1	12	 2.10000	19.93000	13.73000	87.31000
	424	1	9	-1.18080	20.14000	 7.54000	88.94000
	425	1	10	-1.05000	19.77000	13.76000	88.94000
	426	1	7	-0.95000	22.38000	14.78000	89.01000
	427	1	6	-1.05000	23.70000	13.21000	86.70000
	428	1	6	-1.05000	20.23000	15.23000	86.71000
	429	1	6	-1.05000	21.09000	12.71000	86.95000
	430	1	2	 0.42500	22.78000	15.53000	88.58000
	431	1	1	 1.57500	18.16000	10.45000	 0.00000
	432	1	12	 2.10000	22.57000	12.19000	87.32000
	433	1	12	 2.10000	22.46000	 9.24000	87.31000
	434	1	10	-1.05000	22.76000	12.02000	88.94000
	435	1	10	-1.05000	22.31000	 9.27000	88.94000
	436	1	7	-0.95000	19.75000	10.30000	89.01000
	437	1	6	-1.05000	21.07000	 8.72000	86.70000
	438	1	6	-1.05000	22.77000	10.74000	86.71000
	439	1	6	-1.05000	23.63000	 8.22000	86.95000
	440	1	2	 0.42500	20.15000	11.05000	88.58000
	441	1	4	 1.36000	25.88000	 8.97000	 0.00000
	442	1	12	 2.10000	26.64000	 7.23000	 2.68000
	443	1	12	 2.10000	26.74000	10.18000	 2.69000
	444	1	9	-1.18080	26.45000	 7.40000	 1.06000
	445	1	9	-1.18080	26.90000	10.14000	 1.06000
	446	1	8	-1.08090	24.29000	 9.12000	 0.99000
	447	1	6	-1.05000	22.97000	10.70000	 3.30000
	448	1	6	-1.05000	26.44000	 8.68000	 3.30000
	449	1	6	-1.05000	25.58000	11.19000	 3.06000
	450	1	2	 0.42500	23.89000	 8.37000	 1.43000
	451	1	1	 1.57500	23.35000	13.45000	 0.00000
	452	1	12	 2.10000	24.10000	11.71000	 2.68000
	453	1	12	 2.10000	24.21000	14.66000	 2.69000
	454	1	10	-1.05000	23.91000	11.88000	 1.06000
	455	1	9	-1.18080	24.36000	14.63000	 1.06000
	456	1	8	-1.08090	26.92000	13.60000	 0.99000
	457	1	6	-1.05000	25.60000	15.18000	 3.30000
	458	1	6	-1.05000	23.90000	13.16000	 3.30000
	459	1	6	-1.05000	23.04000	15.68000	 3.06000
	460	1	2	 0.42500	26.52000	12.85000	 1.43000
	461	1	4	 1.36000	25.95000	14.94000	 0.00000
	462	1	12	 2.10000	25.10000	 7.71000	87.32000
	463	1	12	 2.10000	25.09000	13.73000	87.31000
	464	1	9	-1.18080	25.30000	 7.54000	88.94000
	465	1	9	-1.18080	24.93000	13.76000	88.94000
	466	1	8	-1.08090	27.54000	14.78000	89.01000
	467	1	6	-1.05000	28.86000	13.21000	86.70000
	468	1	6	-1.05000	25.39000	15.23000	86.71000
	469	1	6	-1.05000	26.25000	12.71000	86.95000
	470	1	2	 0.42500	27.94000	15.53000	88.58000
	471	1	1	 1.57500	23.32000	10.45000	 0.00000
	472	1	12	 2.10000	27.73000	12.19000	87.32000
	473	1	12	 2.10000	27.62000	 9.24000	87.31000
	474	1	10	-1.05000	27.92000	12.02000	88.94000
	475	1	9	-1.18080	27.47000	 9.27000	88.94000
	476	1	8	-1.08090	24.91000	10.30000	89.01000
	477	1	6	-1.05000	26.23000	 8.72000	86.70000
	478	1	6	-1.05000	27.93000	10.74000	86.71000
	479	1	6	-1.05000	28.79000	 8.22000	86.95000
	480	1	2	 0.42500	25.31000	11.05000	88.58000
	481	1	1	 1.57500	 0.17000	17.93000	 0.00000
	482	1	12	 2.10000	 0.93000	16.19000	 2.68000
	483	1	12	 2.10000	 1.03000	19.14000	 2.69000
	484	1	10	-1.05000	 0.73000	16.37000	 1.06000
	485	1	10	-1.05000	 1.18000	19.11000	 1.06000
	486	1	7	-0.95000	29.54000	18.08000	 0.99000
	487	1	6	-1.05000	28.22000	19.66000	 3.30000
	488	1	6	-1.05000	 0.72000	17.64000	 3.30000
	489	1	6	-1.05000	30.82000	20.16000	 3.06000
	490	1	2	 0.42500	29.14000	17.34000	 1.43000
	491	1	4	 1.36000	28.59000	22.41000	 0.00000
	492	1	12	 2.10000	29.35000	20.68000	 2.68000
	493	1	12	 2.10000	29.45000	23.63000	 2.69000
	494	1	9	-1.18080	29.16000	20.85000	 1.06000
	495	1	9	-1.18080	29.60000	23.59000	 1.06000
	496	1	7	-0.95000	 1.20000	22.57000	 0.99000
	497	1	6	-1.05000	30.84000	24.14000	 3.30000
	498	1	6	-1.05000	29.15000	22.12000	 3.30000
	499	1	6	-1.05000	28.29000	24.64000	 3.06000
	500	1	2	 0.42500	 0.80000	21.82000	 1.43000
	501	1	1	 1.57500	 0.23000	23.90000	 0.00000
	502	1	12	 2.10000	30.35000	16.67000	87.32000
	503	1	12	 2.10000	30.33000	22.69000	87.31000
	504	1	10	-1.05000	30.54000	16.50000	88.94000
	505	1	9	-1.18080	30.18000	22.72000	88.94000
	506	1	7	-0.95000	 1.82000	23.75000	89.01000
	507	1	6	-1.05000	 3.14000	22.17000	86.70000
	508	1	6	-1.05000	30.63000	24.19000	86.71000
	509	1	6	-1.05000	 0.53000	21.67000	86.95000
	510	1	2	 0.42500	 2.22000	24.50000	88.58000
	511	1	1	 1.57500	28.57000	19.42000	 0.00000
	512	1	12	 2.10000	 2.01000	21.16000	87.32000
	513	1	12	 2.10000	 1.91000	18.21000	87.31000
	514	1	10	-1.05000	 2.20000	20.98000	88.94000
	515	1	10	-1.05000	 1.76000	18.24000	88.94000
	516	1	7	-0.95000	30.16000	19.27000	89.01000
	517	1	6	-1.05000	 0.52000	17.69000	86.70000
	518	1	6	-1.05000	 2.21000	19.71000	86.71000
	519	1	6	-1.05000	 3.07000	17.19000	86.95000
	520	1	2	 0.42500	30.56000	20.01000	88.58000
	521	1	4	 1.36000	 5.33000	17.93000	 0.00000
	522	1	12	 2.10000	 6.09000	16.19000	 2.68000
	523	1	12	 2.10000	 6.19000	19.14000	 2.69000
	524	1	9	-1.18080	 5.89000	16.37000	 1.06000
	525	1	9	-1.18080	 6.34000	19.11000	 1.06000
	526	1	8	-1.08090	 3.74000	18.08000	 0.99000
	527	1	6	-1.05000	 2.42000	19.66000	 3.30000
	528	1	6	-1.05000	 5.88000	17.64000	 3.30000
	529	1	6	-1.05000	 5.02000	20.16000	 3.06000
	530	1	2	 0.42500	 3.34000	17.34000	 1.43000
	531	1	1	 1.57500	 2.79000	22.41000	 0.00000
	532	1	12	 2.10000	 3.55000	20.68000	 2.68000
	533	1	12	 2.10000	 3.65000	23.63000	 2.69000
	534	1	10	-1.05000	 3.36000	20.85000	 1.06000
	535	1	10	-1.05000	 3.80000	23.59000	 1.06000
	536	1	7	-0.95000	 6.36000	22.57000	 0.99000
	537	1	6	-1.05000	 5.04000	24.14000	 3.30000
	538	1	6	-1.05000	 3.35000	22.12000	 3.30000
	539	1	6	-1.05000	 2.49000	24.64000	 3.06000
	540	1	2	 0.42500	 5.96000	21.82000	 1.43000
	541	1	1	 1.57500	 5.39000	23.90000	 0.00000
	542	1	12	 2.10000	 4.55000	16.67000	87.32000
	543	1	12	 2.10000	 4.53000	22.69000	87.31000
	544	1	9	-1.18080	 4.74000	16.50000	88.94000
	545	1	10	-1.05000	 4.38000	22.72000	88.94000
	546	1	7	-0.95000	 6.98000	23.75000	89.01000
	547	1	6	-1.05000	 8.30000	22.17000	86.70000
	548	1	6	-1.05000	 4.83000	24.19000	86.71000
	549	1	6	-1.05000	 5.69000	21.67000	86.95000
	550	1	2	 0.42500	 7.38000	24.50000	88.58000
	551	1	1	 1.57500	 2.77000	19.42000	 0.00000
	552	1	12	 2.10000	 7.17000	21.16000	87.32000
	553	1	12	 2.10000	 7.07000	18.21000	87.31000
	554	1	10	-1.05000	 7.36000	20.98000	88.94000
	555	1	9	-1.18080	 6.92000	18.24000	88.94000
	556	1	8	-1.08090	 4.36000	19.27000	89.01000
	557	1	6	-1.05000	 5.68000	17.69000	86.70000
	558	1	6	-1.05000	 7.37000	19.71000	86.71000
	559	1	6	-1.05000	 8.23000	17.19000	86.95000
	560	1	2	 0.42500	 4.76000	20.01000	88.58000
	561	1	1	 1.57500	10.49000	17.93000	 0.00000
	562	1	12	 2.10000	11.25000	16.19000	 2.68000
	563	1	12	 2.10000	11.35000	19.14000	 2.69000
	564	1	10	-1.05000	11.05000	16.37000	 1.06000
	565	1	10	-1.05000	11.50000	19.11000	 1.06000
	566	1	7	-0.95000	 8.90000	18.08000	 0.99000
	567	1	6	-1.05000	 7.58000	19.66000	 3.30000
	568	1	6	-1.05000	11.04000	17.64000	 3.30000
	569	1	6	-1.05000	10.18000	20.16000	 3.06000
	570	1	2	 0.42500	 8.50000	17.34000	 1.43000
	571	1	1	 1.57500	 7.95000	22.41000	 0.00000
	572	1	12	 2.10000	 8.71000	20.68000	 2.68000
	573	1	12	 2.10000	 8.81000	23.63000	 2.69000
	574	1	10	-1.05000	 8.52000	20.85000	 1.06000
	575	1	10	-1.05000	 8.96000	23.59000	 1.06000
	576	1	7	-0.95000	11.52000	22.57000	 0.99000
	577	1	6	-1.05000	10.20000	24.14000	 3.30000
	578	1	6	-1.05000	 8.51000	22.12000	 3.30000
	579	1	6	-1.05000	 7.65000	24.64000	 3.06000
	580	1	2	 0.42500	11.12000	21.82000	 1.43000
	581	1	1	 1.57500	10.55000	23.90000	 0.00000
	582	1	12	 2.10000	 9.71000	16.67000	87.32000
	583	1	12	 2.10000	 9.69000	22.69000	87.31000
	584	1	10	-1.05000	 9.90000	16.50000	88.94000
	585	1	10	-1.05000	 9.54000	22.72000	88.94000
	586	1	7	-0.95000	12.14000	23.75000	89.01000
	587	1	6	-1.05000	13.46000	22.17000	86.70000
	588	1	6	-1.05000	 9.99000	24.19000	86.71000
	589	1	6	-1.05000	10.85000	21.67000	86.95000
	590	1	2	 0.42500	12.54000	24.50000	88.58000
	591	1	1	 1.57500	 7.93000	19.42000	 0.00000
	592	1	12	 2.10000	12.33000	21.16000	87.32000
	593	1	12	 2.10000	12.23000	18.21000	87.31000
	594	1	10	-1.05000	12.52000	20.98000	88.94000
	595	1	10	-1.05000	12.08000	18.24000	88.94000
	596	1	7	-0.95000	 9.52000	19.27000	89.01000
	597	1	6	-1.05000	10.84000	17.69000	86.70000
	598	1	6	-1.05000	12.53000	19.71000	86.71000
	599	1	6	-1.05000	13.39000	17.19000	86.95000
	600	1	2	 0.42500	 9.92000	20.01000	88.58000
	601	1	1	 1.57500	15.65000	17.93000	 0.00000
	602	1	12	 2.10000	16.41000	16.19000	 2.68000
	603	1	12	 2.10000	16.51000	19.14000	 2.69000
	604	1	10	-1.05000	16.21000	16.37000	 1.06000
	605	1	10	-1.05000	16.66000	19.11000	 1.06000
	606	1	7	-0.95000	14.06000	18.08000	 0.99000
	607	1	6	-1.05000	12.74000	19.66000	 3.30000
	608	1	6	-1.05000	16.20000	17.64000	 3.30000
	609	1	6	-1.05000	15.34000	20.16000	 3.06000
	610	1	2	 0.42500	13.66000	17.34000	 1.43000
	611	1	1	 1.57500	13.11000	22.41000	 0.00000
	612	1	12	 2.10000	13.87000	20.68000	 2.68000
	613	1	12	 2.10000	13.97000	23.63000	 2.69000
	614	1	10	-1.05000	13.68000	20.85000	 1.06000
	615	1	9	-1.18080	14.12000	23.59000	 1.06000
	616	1	8	-1.08090	16.68000	22.57000	 0.99000
	617	1	6	-1.05000	15.36000	24.14000	 3.30000
	618	1	6	-1.05000	13.67000	22.12000	 3.30000
	619	1	6	-1.05000	12.81000	24.64000	 3.06000
	620	1	2	 0.42500	16.28000	21.82000	 1.43000
	621	1	4	 1.36000	15.71000	23.90000	 0.00000
	622	1	12	 2.10000	14.87000	16.67000	87.32000
	623	1	12	 2.10000	14.85000	22.69000	87.31000
	624	1	10	-1.05000	15.06000	16.50000	88.94000
	625	1	9	-1.18080	14.70000	22.72000	88.94000
	626	1	8	-1.08090	17.30000	23.75000	89.01000
	627	1	6	-1.05000	18.62000	22.17000	86.70000
	628	1	6	-1.05000	15.15000	24.19000	86.71000
	629	1	6	-1.05000	16.01000	21.67000	86.95000
	630	1	2	 0.42500	17.70000	24.50000	88.58000
	631	1	1	 1.57500	13.09000	19.42000	 0.00000