LAMMPS input data file #28-Oct-2019 22:54:53

4112 atoms
4320 bonds
7632 angles
   
12 atom types
11 bond types
11 angle types

0 30.96 xlo xhi
0 35.8633 ylo yhi
0 41.58 zlo zhi
       

Masses 

1 26.98154 # Al
2 1.00794 # H
3 1.00794 # Hw
4 24.305 # Mgo
5 22.98977 # Na
6 15.99941 # Ob
7 15.99941 # Oh
8 15.99941 # Ohmg
9 15.99941 # Omg
10 15.99941 # Op
11 15.99941 # Ow
12 28.08538 # Si

Pair Coeffs 

1 5.766555E-08 4.271236 # Al
2 0.000000E+00 0.000000 # H
3 0.000000E+00 0.000000 # Hw
4 3.915690E-08 5.264321 # Mgo
5 1.529199E-02 2.159538 # Na
6 6.939839E-03 3.385415 # Ob
7 6.738778E-03 3.165541 # Oh
8 6.738778E-03 3.165541 # Ohmg
9 6.738778E-03 3.165541 # Omg
10 6.738778E-03 3.165541 # Op
11 6.738778E-03 3.165541 # Ow
12 7.981159E-08 3.302027 # Si

Atoms 

	1	1	1	 1.57500	 2.55581	 1.94609	 0.00000
	2	1	12	 2.10000	 3.31581	 0.20609	 2.68000
	3	1	12	 2.10000	 3.41581	 3.15609	 2.69000
	4	1	10	-1.05000	 3.12581	 0.37609	 1.06000
	5	1	10	-1.05000	 3.56581	 3.12609	 1.06000
	6	1	8	-1.08090	 0.96581	 2.09609	 0.99000
	7	1	6	-1.05000	30.60581	 3.67609	 3.30000
	8	1	6	-1.05000	 3.11581	 1.65609	 3.30000
	9	1	6	-1.05000	 2.24581	 4.17609	 3.06000
	10	1	2	 0.42500	 0.56581	 1.35609	 1.43000
	11	1	1	 1.57500	 0.01581	 6.42609	 0.00000
	12	1	12	 2.10000	 0.77581	 4.69609	 2.68000
	13	1	12	 2.10000	 0.87581	 7.63609	 2.69000
	14	1	9	-1.18080	 0.58581	 4.86609	 1.06000
	15	1	10	-1.05000	 1.03581	 7.60609	 1.06000
	16	1	8	-1.08090	 3.58581	 6.57609	 0.99000
	17	1	6	-1.05000	 2.26581	 8.15609	 3.30000
	18	1	6	-1.05000	 0.57581	 6.13609	 3.30000
	19	1	6	-1.05000	30.67581	 8.65609	 3.06000
	20	1	2	 0.42500	 3.18581	 5.83609	 1.43000
	21	1	1	 1.57500	 2.61581	 7.91609	 0.00000
	22	1	12	 2.10000	 1.77581	 0.68609	38.90000
	23	1	12	 2.10000	 1.75581	 6.70609	38.89000
	24	1	10	-1.05000	 1.96581	 0.51609	40.52000
	25	1	10	-1.05000	 1.60581	 6.73609	40.52000
	26	1	8	-1.08090	 4.20581	 7.76609	40.59000
	27	1	6	-1.05000	 5.52581	 6.18609	38.28000
	28	1	6	-1.05000	 2.06581	 8.20609	38.29000
	29	1	6	-1.05000	 2.92581	 5.68609	38.53000
	30	1	2	 0.42500	 4.60581	 8.50609	40.16000
	31	1	4	 1.36000	30.95581	 3.43609	 0.00000
	32	1	12	 2.10000	 4.39581	 5.16609	38.90000
	33	1	12	 2.10000	 4.29581	 2.22609	38.89000
	34	1	9	-1.18080	 4.59581	 4.99609	40.52000
	35	1	10	-1.05000	 4.14581	 2.25609	40.52000
	36	1	8	-1.08090	 1.58581	 3.28609	40.59000
	37	1	6	-1.05000	 2.90581	 1.70609	38.28000
	38	1	6	-1.05000	 4.59581	 3.72609	38.29000
	39	1	6	-1.05000	 5.45581	 1.20609	38.53000
	40	1	2	 0.42500	 1.98581	 4.02609	40.16000
	41	1	1	 1.57500	 7.71581	 1.94609	 0.00000
	42	1	12	 2.10000	 8.47581	 0.20609	 2.68000
	43	1	12	 2.10000	 8.57581	 3.15609	 2.69000
	44	1	9	-1.18080	 8.28581	 0.37609	 1.06000
	45	1	10	-1.05000	 8.72581	 3.12609	 1.06000
	46	1	7	-0.95000	 6.12581	 2.09609	 0.99000
	47	1	6	-1.05000	 4.80581	 3.67609	 3.30000
	48	1	6	-1.05000	 8.27581	 1.65609	 3.30000
	49	1	6	-1.05000	 7.40581	 4.17609	 3.06000
	50	1	2	 0.42500	 5.72581	 1.35609	 1.43000
	51	1	4	 1.36000	 5.17581	 6.42609	 0.00000
	52	1	12	 2.10000	 5.93581	 4.69609	 2.68000
	53	1	12	 2.10000	 6.03581	 7.63609	 2.69000
	54	1	9	-1.18080	 5.74581	 4.86609	 1.06000
	55	1	9	-1.18080	 6.19581	 7.60609	 1.06000
	56	1	7	-0.95000	 8.74581	 6.57609	 0.99000
	57	1	6	-1.05000	 7.42581	 8.15609	 3.30000
	58	1	6	-1.05000	 5.73581	 6.13609	 3.30000
	59	1	6	-1.05000	 4.87581	 8.65609	 3.06000
	60	1	2	 0.42500	 8.34581	 5.83609	 1.43000
	61	1	1	 1.57500	 7.77581	 7.91609	 0.00000
	62	1	12	 2.10000	 6.93581	 0.68609	38.90000
	63	1	12	 2.10000	 6.91581	 6.70609	38.89000
	64	1	9	-1.18080	 7.12581	 0.51609	40.52000
	65	1	9	-1.18080	 6.76581	 6.73609	40.52000
	66	1	7	-0.95000	 9.36581	 7.76609	40.59000
	67	1	6	-1.05000	10.68581	 6.18609	38.28000
	68	1	6	-1.05000	 7.22581	 8.20609	38.29000
	69	1	6	-1.05000	 8.08581	 5.68609	38.53000
	70	1	2	 0.42500	 9.76581	 8.50609	40.16000
	71	1	1	 1.57500	 5.15581	 3.43609	 0.00000
	72	1	12	 2.10000	 9.55581	 5.16609	38.90000
	73	1	12	 2.10000	 9.45581	 2.22609	38.89000
	74	1	10	-1.05000	 9.75581	 4.99609	40.52000
	75	1	10	-1.05000	 9.30581	 2.25609	40.52000
	76	1	7	-0.95000	 6.74581	 3.28609	40.59000
	77	1	6	-1.05000	 8.06581	 1.70609	38.28000
	78	1	6	-1.05000	 9.75581	 3.72609	38.29000
	79	1	6	-1.05000	10.61581	 1.20609	38.53000
	80	1	2	 0.42500	 7.14581	 4.02609	40.16000
	81	1	1	 1.57500	12.87581	 1.94609	 0.00000
	82	1	12	 2.10000	13.63581	 0.20609	 2.68000
	83	1	12	 2.10000	13.73581	 3.15609	 2.69000
	84	1	10	-1.05000	13.44581	 0.37609	 1.06000
	85	1	10	-1.05000	13.88581	 3.12609	 1.06000
	86	1	7	-0.95000	11.28581	 2.09609	 0.99000
	87	1	6	-1.05000	 9.96581	 3.67609	 3.30000
	88	1	6	-1.05000	13.43581	 1.65609	 3.30000
	89	1	6	-1.05000	12.56581	 4.17609	 3.06000
	90	1	2	 0.42500	10.88581	 1.35609	 1.43000
	91	1	1	 1.57500	10.33581	 6.42609	 0.00000
	92	1	12	 2.10000	11.09581	 4.69609	 2.68000
	93	1	12	 2.10000	11.19581	 7.63609	 2.69000
	94	1	10	-1.05000	10.90581	 4.86609	 1.06000
	95	1	10	-1.05000	11.35581	 7.60609	 1.06000
	96	1	7	-0.95000	13.90581	 6.57609	 0.99000
	97	1	6	-1.05000	12.58581	 8.15609	 3.30000
	98	1	6	-1.05000	10.89581	 6.13609	 3.30000
	99	1	6	-1.05000	10.03581	 8.65609	 3.06000
	100	1	2	 0.42500	13.50581	 5.83609	 1.43000
	101	1	1	 1.57500	12.93581	 7.91609	 0.00000
	102	1	12	 2.10000	12.09581	 0.68609	38.90000
	103	1	12	 2.10000	12.07581	 6.70609	38.89000
	104	1	10	-1.05000	12.28581	 0.51609	40.52000
	105	1	10	-1.05000	11.92581	 6.73609	40.52000
	106	1	7	-0.95000	14.52581	 7.76609	40.59000
	107	1	6	-1.05000	15.84581	 6.18609	38.28000
	108	1	6	-1.05000	12.38581	 8.20609	38.29000
	109	1	6	-1.05000	13.24581	 5.68609	38.53000
	110	1	2	 0.42500	14.92581	 8.50609	40.16000
	111	1	1	 1.57500	10.31581	 3.43609	 0.00000
	112	1	12	 2.10000	14.71581	 5.16609	38.90000
	113	1	12	 2.10000	14.61581	 2.22609	38.89000
	114	1	10	-1.05000	14.91581	 4.99609	40.52000
	115	1	10	-1.05000	14.46581	 2.25609	40.52000
	116	1	7	-0.95000	11.90581	 3.28609	40.59000
	117	1	6	-1.05000	13.22581	 1.70609	38.28000
	118	1	6	-1.05000	14.91581	 3.72609	38.29000
	119	1	6	-1.05000	15.77581	 1.20609	38.53000
	120	1	2	 0.42500	12.30581	 4.02609	40.16000
	121	1	4	 1.36000	18.03581	 1.94609	 0.00000
	122	1	12	 2.10000	18.79581	 0.20609	 2.68000
	123	1	12	 2.10000	18.89581	 3.15609	 2.69000
	124	1	9	-1.18080	18.60581	 0.37609	 1.06000
	125	1	9	-1.18080	19.04581	 3.12609	 1.06000
	126	1	8	-1.08090	16.44581	 2.09609	 0.99000
	127	1	6	-1.05000	15.12581	 3.67609	 3.30000
	128	1	6	-1.05000	18.59581	 1.65609	 3.30000
	129	1	6	-1.05000	17.72581	 4.17609	 3.06000
	130	1	2	 0.42500	16.04581	 1.35609	 1.43000
	131	1	1	 1.57500	15.49581	 6.42609	 0.00000
	132	1	12	 2.10000	16.25581	 4.69609	 2.68000
	133	1	12	 2.10000	16.35581	 7.63609	 2.69000
	134	1	10	-1.05000	16.06581	 4.86609	 1.06000
	135	1	9	-1.18080	16.51581	 7.60609	 1.06000
	136	1	8	-1.08090	19.06581	 6.57609	 0.99000
	137	1	6	-1.05000	17.74581	 8.15609	 3.30000
	138	1	6	-1.05000	16.05581	 6.13609	 3.30000
	139	1	6	-1.05000	15.19581	 8.65609	 3.06000
	140	1	2	 0.42500	18.66581	 5.83609	 1.43000
	141	1	4	 1.36000	18.09581	 7.91609	 0.00000
	142	1	12	 2.10000	17.25581	 0.68609	38.90000
	143	1	12	 2.10000	17.23581	 6.70609	38.89000
	144	1	9	-1.18080	17.44581	 0.51609	40.52000
	145	1	9	-1.18080	17.08581	 6.73609	40.52000
	146	1	8	-1.08090	19.68581	 7.76609	40.59000
	147	1	6	-1.05000	21.00581	 6.18609	38.28000
	148	1	6	-1.05000	17.54581	 8.20609	38.29000
	149	1	6	-1.05000	18.40581	 5.68609	38.53000
	150	1	2	 0.42500	20.08581	 8.50609	40.16000
	151	1	1	 1.57500	15.47581	 3.43609	 0.00000
	152	1	12	 2.10000	19.87581	 5.16609	38.90000
	153	1	12	 2.10000	19.77581	 2.22609	38.89000
	154	1	10	-1.05000	20.07581	 4.99609	40.52000
	155	1	9	-1.18080	19.62581	 2.25609	40.52000
	156	1	8	-1.08090	17.06581	 3.28609	40.59000
	157	1	6	-1.05000	18.38581	 1.70609	38.28000
	158	1	6	-1.05000	20.07581	 3.72609	38.29000
	159	1	6	-1.05000	20.93581	 1.20609	38.53000
	160	1	2	 0.42500	17.46581	 4.02609	40.16000
	161	1	1	 1.57500	23.19581	 1.94609	 0.00000
	162	1	12	 2.10000	23.95581	 0.20609	 2.68000
	163	1	12	 2.10000	24.05581	 3.15609	 2.69000
	164	1	10	-1.05000	23.76581	 0.37609	 1.06000
	165	1	10	-1.05000	24.20581	 3.12609	 1.06000
	166	1	7	-0.95000	21.60581	 2.09609	 0.99000
	167	1	6	-1.05000	20.28581	 3.67609	 3.30000
	168	1	6	-1.05000	23.75581	 1.65609	 3.30000
	169	1	6	-1.05000	22.88581	 4.17609	 3.06000
	170	1	2	 0.42500	21.20581	 1.35609	 1.43000
	171	1	1	 1.57500	20.65581	 6.42609	 0.00000
	172	1	12	 2.10000	21.41581	 4.69609	 2.68000
	173	1	12	 2.10000	21.51581	 7.63609	 2.69000
	174	1	10	-1.05000	21.22581	 4.86609	 1.06000
	175	1	10	-1.05000	21.67581	 7.60609	 1.06000
	176	1	7	-0.95000	24.22581	 6.57609	 0.99000
	177	1	6	-1.05000	22.90581	 8.15609	 3.30000
	178	1	6	-1.05000	21.21581	 6.13609	 3.30000
	179	1	6	-1.05000	20.35581	 8.65609	 3.06000
	180	1	2	 0.42500	23.82581	 5.83609	 1.43000
	181	1	1	 1.57500	23.25581	 7.91609	 0.00000
	182	1	12	 2.10000	22.41581	 0.68609	38.90000
	183	1	12	 2.10000	22.39581	 6.70609	38.89000
	184	1	10	-1.05000	22.60581	 0.51609	40.52000
	185	1	10	-1.05000	22.24581	 6.73609	40.52000
	186	1	7	-0.95000	24.84581	 7.76609	40.59000
	187	1	6	-1.05000	26.16581	 6.18609	38.28000
	188	1	6	-1.05000	22.70581	 8.20609	38.29000
	189	1	6	-1.05000	23.56581	 5.68609	38.53000
	190	1	2	 0.42500	25.24581	 8.50609	40.16000
	191	1	1	 1.57500	20.63581	 3.43609	 0.00000
	192	1	12	 2.10000	25.03581	 5.16609	38.90000
	193	1	12	 2.10000	24.93581	 2.22609	38.89000
	194	1	10	-1.05000	25.23581	 4.99609	40.52000
	195	1	10	-1.05000	24.78581	 2.25609	40.52000
	196	1	7	-0.95000	22.22581	 3.28609	40.59000
	197	1	6	-1.05000	23.54581	 1.70609	38.28000
	198	1	6	-1.05000	25.23581	 3.72609	38.29000
	199	1	6	-1.05000	26.09581	 1.20609	38.53000
	200	1	2	 0.42500	22.62581	 4.02609	40.16000
	201	1	1	 1.57500	28.35581	 1.94609	 0.00000
	202	1	12	 2.10000	29.11581	 0.20609	 2.68000
	203	1	12	 2.10000	29.21581	 3.15609	 2.69000
	204	1	10	-1.05000	28.92581	 0.37609	 1.06000
	205	1	9	-1.18080	29.36581	 3.12609	 1.06000
	206	1	7	-0.95000	26.76581	 2.09609	 0.99000
	207	1	6	-1.05000	25.44581	 3.67609	 3.30000
	208	1	6	-1.05000	28.91581	 1.65609	 3.30000
	209	1	6	-1.05000	28.04581	 4.17609	 3.06000
	210	1	2	 0.42500	26.36581	 1.35609	 1.43000
	211	1	1	 1.57500	25.81581	 6.42609	 0.00000
	212	1	12	 2.10000	26.57581	 4.69609	 2.68000
	213	1	12	 2.10000	26.67581	 7.63609	 2.69000
	214	1	10	-1.05000	26.38581	 4.86609	 1.06000
	215	1	10	-1.05000	26.83581	 7.60609	 1.06000
	216	1	7	-0.95000	29.38581	 6.57609	 0.99000
	217	1	6	-1.05000	28.06581	 8.15609	 3.30000
	218	1	6	-1.05000	26.37581	 6.13609	 3.30000
	219	1	6	-1.05000	25.51581	 8.65609	 3.06000
	220	1	2	 0.42500	28.98581	 5.83609	 1.43000
	221	1	1	 1.57500	28.41581	 7.91609	 0.00000
	222	1	12	 2.10000	27.57581	 0.68609	38.90000
	223	1	12	 2.10000	27.55581	 6.70609	38.89000
	224	1	10	-1.05000	27.76581	 0.51609	40.52000
	225	1	10	-1.05000	27.40581	 6.73609	40.52000
	226	1	7	-0.95000	30.00581	 7.76609	40.59000
	227	1	6	-1.05000	 0.36581	 6.18609	38.28000
	228	1	6	-1.05000	27.86581	 8.20609	38.29000
	229	1	6	-1.05000	28.72581	 5.68609	38.53000
	230	1	2	 0.42500	30.40581	 8.50609	40.16000
	231	1	1	 1.57500	25.79581	 3.43609	 0.00000
	232	1	12	 2.10000	30.19581	 5.16609	38.90000
	233	1	12	 2.10000	30.09581	 2.22609	38.89000
	234	1	9	-1.18080	30.39581	 4.99609	40.52000
	235	1	9	-1.18080	29.94581	 2.25609	40.52000
	236	1	7	-0.95000	27.38581	 3.28609	40.59000
	237	1	6	-1.05000	28.70581	 1.70609	38.28000
	238	1	6	-1.05000	30.39581	 3.72609	38.29000
	239	1	6	-1.05000	 0.29581	 1.20609	38.53000
	240	1	2	 0.42500	27.78581	 4.02609	40.16000
	241	1	1	 1.57500	 2.63581	10.91609	 0.00000
	242	1	12	 2.10000	 3.39581	 9.17609	 2.68000
	243	1	12	 2.10000	 3.49581	12.12609	 2.69000
	244	1	10	-1.05000	 3.20581	 9.34609	 1.06000
	245	1	10	-1.05000	 3.65581	12.08609	 1.06000
	246	1	7	-0.95000	 1.04581	11.06609	 0.99000
	247	1	6	-1.05000	30.68581	12.64609	 3.30000
	248	1	6	-1.05000	 3.19581	10.62609	 3.30000
	249	1	6	-1.05000	 2.33581	13.13609	 3.06000
	250	1	2	 0.42500	 0.64581	10.31609	 1.43000
	251	1	1	 1.57500	 0.10581	15.39609	 0.00000
	252	1	12	 2.10000	 0.85581	13.65609	 2.68000
	253	1	12	 2.10000	 0.96581	16.60609	 2.69000
	254	1	10	-1.05000	 0.66581	13.82609	 1.06000
	255	1	10	-1.05000	 1.11581	16.57609	 1.06000
	256	1	7	-0.95000	 3.67581	15.54609	 0.99000
	257	1	6	-1.05000	 2.35581	17.12609	 3.30000
	258	1	6	-1.05000	 0.65581	15.10609	 3.30000
	259	1	6	-1.05000	30.75581	17.62609	 3.06000
	260	1	2	 0.42500	 3.27581	14.79609	 1.43000
	261	1	1	 1.57500	 2.70581	16.88609	 0.00000
	262	1	12	 2.10000	 1.85581	 9.65609	38.90000
	263	1	12	 2.10000	 1.84581	15.67609	38.89000
	264	1	10	-1.05000	 2.05581	 9.48609	40.52000
	265	1	10	-1.05000	 1.68581	15.70609	40.52000
	266	1	7	-0.95000	 4.29581	16.72609	40.59000
	267	1	6	-1.05000	 5.61581	15.15609	38.28000
	268	1	6	-1.05000	 2.14581	17.17609	38.29000
	269	1	6	-1.05000	 3.00581	14.65609	38.53000
	270	1	2	 0.42500	 4.69581	17.47609	40.16000
	271	1	1	 1.57500	 0.07581	12.39609	 0.00000
	272	1	12	 2.10000	 4.48581	14.13609	38.90000
	273	1	12	 2.10000	 4.37581	11.18609	38.89000
	274	1	10	-1.05000	 4.67581	13.96609	40.52000
	275	1	10	-1.05000	 4.22581	11.21609	40.52000
	276	1	7	-0.95000	 1.66581	12.24609	40.59000
	277	1	6	-1.05000	 2.98581	10.66609	38.28000
	278	1	6	-1.05000	 4.68581	12.68609	38.29000
	279	1	6	-1.05000	 5.54581	10.16609	38.53000
	280	1	2	 0.42500	 2.06581	12.99609	40.16000
	281	1	1	 1.57500	 7.79581	10.91609	 0.00000
	282	1	12	 2.10000	 8.55581	 9.17609	 2.68000
	283	1	12	 2.10000	 8.65581	12.12609	 2.69000
	284	1	10	-1.05000	 8.36581	 9.34609	 1.06000
	285	1	10	-1.05000	 8.81581	12.08609	 1.06000
	286	1	7	-0.95000	 6.20581	11.06609	 0.99000
	287	1	6	-1.05000	 4.88581	12.64609	 3.30000
	288	1	6	-1.05000	 8.35581	10.62609	 3.30000
	289	1	6	-1.05000	 7.49581	13.13609	 3.06000
	290	1	2	 0.42500	 5.80581	10.31609	 1.43000
	291	1	1	 1.57500	 5.26581	15.39609	 0.00000
	292	1	12	 2.10000	 6.01581	13.65609	 2.68000
	293	1	12	 2.10000	 6.12581	16.60609	 2.69000
	294	1	10	-1.05000	 5.82581	13.82609	 1.06000
	295	1	9	-1.18080	 6.27581	16.57609	 1.06000
	296	1	8	-1.08090	 8.83581	15.54609	 0.99000
	297	1	6	-1.05000	 7.51581	17.12609	 3.30000
	298	1	6	-1.05000	 5.81581	15.10609	 3.30000
	299	1	6	-1.05000	 4.95581	17.62609	 3.06000
	300	1	2	 0.42500	 8.43581	14.79609	 1.43000
	301	1	4	 1.36000	 7.86581	16.88609	 0.00000
	302	1	12	 2.10000	 7.01581	 9.65609	38.90000
	303	1	12	 2.10000	 7.00581	15.67609	38.89000
	304	1	10	-1.05000	 7.21581	 9.48609	40.52000
	305	1	9	-1.18080	 6.84581	15.70609	40.52000
	306	1	8	-1.08090	 9.45581	16.72609	40.59000
	307	1	6	-1.05000	10.77581	15.15609	38.28000
	308	1	6	-1.05000	 7.30581	17.17609	38.29000
	309	1	6	-1.05000	 8.16581	14.65609	38.53000
	310	1	2	 0.42500	 9.85581	17.47609	40.16000
	311	1	1	 1.57500	 5.23581	12.39609	 0.00000
	312	1	12	 2.10000	 9.64581	14.13609	38.90000
	313	1	12	 2.10000	 9.53581	11.18609	38.89000
	314	1	10	-1.05000	 9.83581	13.96609	40.52000
	315	1	10	-1.05000	 9.38581	11.21609	40.52000
	316	1	7	-0.95000	 6.82581	12.24609	40.59000
	317	1	6	-1.05000	 8.14581	10.66609	38.28000
	318	1	6	-1.05000	 9.84581	12.68609	38.29000
	319	1	6	-1.05000	10.70581	10.16609	38.53000
	320	1	2	 0.42500	 7.22581	12.99609	40.16000
	321	1	4	 1.36000	12.95581	10.91609	 0.00000
	322	1	12	 2.10000	13.71581	 9.17609	 2.68000
	323	1	12	 2.10000	13.81581	12.12609	 2.69000
	324	1	9	-1.18080	13.52581	 9.34609	 1.06000
	325	1	9	-1.18080	13.97581	12.08609	 1.06000
	326	1	8	-1.08090	11.36581	11.06609	 0.99000
	327	1	6	-1.05000	10.04581	12.64609	 3.30000
	328	1	6	-1.05000	13.51581	10.62609	 3.30000
	329	1	6	-1.05000	12.65581	13.13609	 3.06000
	330	1	2	 0.42500	10.96581	10.31609	 1.43000
	331	1	1	 1.57500	10.42581	15.39609	 0.00000
	332	1	12	 2.10000	11.17581	13.65609	 2.68000
	333	1	12	 2.10000	11.28581	16.60609	 2.69000
	334	1	10	-1.05000	10.98581	13.82609	 1.06000
	335	1	10	-1.05000	11.43581	16.57609	 1.06000
	336	1	7	-0.95000	13.99581	15.54609	 0.99000
	337	1	6	-1.05000	12.67581	17.12609	 3.30000
	338	1	6	-1.05000	10.97581	15.10609	 3.30000
	339	1	6	-1.05000	10.11581	17.62609	 3.06000
	340	1	2	 0.42500	13.59581	14.79609	 1.43000
	341	1	1	 1.57500	13.02581	16.88609	 0.00000
	342	1	12	 2.10000	12.17581	 9.65609	38.90000
	343	1	12	 2.10000	12.16581	15.67609	38.89000
	344	1	9	-1.18080	12.37581	 9.48609	40.52000
	345	1	10	-1.05000	12.00581	15.70609	40.52000
	346	1	7	-0.95000	14.61581	16.72609	40.59000
	347	1	6	-1.05000	15.93581	15.15609	38.28000
	348	1	6	-1.05000	12.46581	17.17609	38.29000
	349	1	6	-1.05000	13.32581	14.65609	38.53000
	350	1	2	 0.42500	15.01581	17.47609	40.16000
	351	1	1	 1.57500	10.39581	12.39609	 0.00000
	352	1	12	 2.10000	14.80581	14.13609	38.90000
	353	1	12	 2.10000	14.69581	11.18609	38.89000
	354	1	10	-1.05000	14.99581	13.96609	40.52000
	355	1	9	-1.18080	14.54581	11.21609	40.52000
	356	1	8	-1.08090	11.98581	12.24609	40.59000
	357	1	6	-1.05000	13.30581	10.66609	38.28000
	358	1	6	-1.05000	15.00581	12.68609	38.29000
	359	1	6	-1.05000	15.86581	10.16609	38.53000
	360	1	2	 0.42500	12.38581	12.99609	40.16000
	361	1	1	 1.57500	18.11581	10.91609	 0.00000
	362	1	12	 2.10000	18.87581	 9.17609	 2.68000
	363	1	12	 2.10000	18.97581	12.12609	 2.69000
	364	1	9	-1.18080	18.68581	 9.34609	 1.06000
	365	1	10	-1.05000	19.13581	12.08609	 1.06000
	366	1	7	-0.95000	16.52581	11.06609	 0.99000
	367	1	6	-1.05000	15.20581	12.64609	 3.30000
	368	1	6	-1.05000	18.67581	10.62609	 3.30000
	369	1	6	-1.05000	17.81581	13.13609	 3.06000
	370	1	2	 0.42500	16.12581	10.31609	 1.43000
	371	1	1	 1.57500	15.58581	15.39609	 0.00000
	372	1	12	 2.10000	16.33581	13.65609	 2.68000
	373	1	12	 2.10000	16.44581	16.60609	 2.69000
	374	1	10	-1.05000	16.14581	13.82609	 1.06000
	375	1	10	-1.05000	16.59581	16.57609	 1.06000
	376	1	7	-0.95000	19.15581	15.54609	 0.99000
	377	1	6	-1.05000	17.83581	17.12609	 3.30000
	378	1	6	-1.05000	16.13581	15.10609	 3.30000
	379	1	6	-1.05000	15.27581	17.62609	 3.06000
	380	1	2	 0.42500	18.75581	14.79609	 1.43000
	381	1	1	 1.57500	18.18581	16.88609	 0.00000
	382	1	12	 2.10000	17.33581	 9.65609	38.90000
	383	1	12	 2.10000	17.32581	15.67609	38.89000
	384	1	9	-1.18080	17.53581	 9.48609	40.52000
	385	1	10	-1.05000	17.16581	15.70609	40.52000
	386	1	7	-0.95000	19.77581	16.72609	40.59000
	387	1	6	-1.05000	21.09581	15.15609	38.28000
	388	1	6	-1.05000	17.62581	17.17609	38.29000
	389	1	6	-1.05000	18.48581	14.65609	38.53000
	390	1	2	 0.42500	20.17581	17.47609	40.16000
	391	1	1	 1.57500	15.55581	12.39609	 0.00000
	392	1	12	 2.10000	19.96581	14.13609	38.90000
	393	1	12	 2.10000	19.85581	11.18609	38.89000
	394	1	10	-1.05000	20.15581	13.96609	40.52000
	395	1	10	-1.05000	19.70581	11.21609	40.52000
	396	1	7	-0.95000	17.14581	12.24609	40.59000
	397	1	6	-1.05000	18.46581	10.66609	38.28000
	398	1	6	-1.05000	20.16581	12.68609	38.29000
	399	1	6	-1.05000	21.02581	10.16609	38.53000
	400	1	2	 0.42500	17.54581	12.99609	40.16000
	401	1	1	 1.57500	23.27581	10.91609	 0.00000
	402	1	12	 2.10000	24.03581	 9.17609	 2.68000
	403	1	12	 2.10000	24.13581	12.12609	 2.69000
	404	1	10	-1.05000	23.84581	 9.34609	 1.06000
	405	1	10	-1.05000	24.29581	12.08609	 1.06000
	406	1	7	-0.95000	21.68581	11.06609	 0.99000
	407	1	6	-1.05000	20.36581	12.64609	 3.30000
	408	1	6	-1.05000	23.83581	10.62609	 3.30000
	409	1	6	-1.05000	22.97581	13.13609	 3.06000
	410	1	2	 0.42500	21.28581	10.31609	 1.43000
	411	1	1	 1.57500	20.74581	15.39609	 0.00000
	412	1	12	 2.10000	21.49581	13.65609	 2.68000
	413	1	12	 2.10000	21.60581	16.60609	 2.69000
	414	1	10	-1.05000	21.30581	13.82609	 1.06000
	415	1	10	-1.05000	21.75581	16.57609	 1.06000
	416	1	7	-0.95000	24.31581	15.54609	 0.99000
	417	1	6	-1.05000	22.99581	17.12609	 3.30000
	418	1	6	-1.05000	21.29581	15.10609	 3.30000
	419	1	6	-1.05000	20.43581	17.62609	 3.06000
	420	1	2	 0.42500	23.91581	14.79609	 1.43000
	421	1	1	 1.57500	23.34581	16.88609	 0.00000
	422	1	12	 2.10000	22.49581	 9.65609	38.90000
	423	1	12	 2.10000	22.48581	15.67609	38.89000
	424	1	10	-1.05000	22.69581	 9.48609	40.52000
	425	1	10	-1.05000	22.32581	15.70609	40.52000
	426	1	7	-0.95000	24.93581	16.72609	40.59000
	427	1	6	-1.05000	26.25581	15.15609	38.28000
	428	1	6	-1.05000	22.78581	17.17609	38.29000
	429	1	6	-1.05000	23.64581	14.65609	38.53000
	430	1	2	 0.42500	25.33581	17.47609	40.16000
	431	1	1	 1.57500	20.71581	12.39609	 0.00000
	432	1	12	 2.10000	25.12581	14.13609	38.90000
	433	1	12	 2.10000	25.01581	11.18609	38.89000
	434	1	10	-1.05000	25.31581	13.96609	40.52000
	435	1	10	-1.05000	24.86581	11.21609	40.52000
	436	1	7	-0.95000	22.30581	12.24609	40.59000
	437	1	6	-1.05000	23.62581	10.66609	38.28000
	438	1	6	-1.05000	25.32581	12.68609	38.29000
	439	1	6	-1.05000	26.18581	10.16609	38.53000
	440	1	2	 0.42500	22.70581	12.99609	40.16000
	441	1	4	 1.36000	28.43581	10.91609	 0.00000
	442	1	12	 2.10000	29.19581	 9.17609	 2.68000
	443	1	12	 2.10000	29.29581	12.12609	 2.69000
	444	1	9	-1.18080	29.00581	 9.34609	 1.06000
	445	1	9	-1.18080	29.45581	12.08609	 1.06000
	446	1	8	-1.08090	26.84581	11.06609	 0.99000
	447	1	6	-1.05000	25.52581	12.64609	 3.30000
	448	1	6	-1.05000	28.99581	10.62609	 3.30000
	449	1	6	-1.05000	28.13581	13.13609	 3.06000
	450	1	2	 0.42500	26.44581	10.31609	 1.43000
	451	1	1	 1.57500	25.90581	15.39609	 0.00000
	452	1	12	 2.10000	26.65581	13.65609	 2.68000
	453	1	12	 2.10000	26.76581	16.60609	 2.69000
	454	1	10	-1.05000	26.46581	13.82609	 1.06000
	455	1	9	-1.18080	26.91581	16.57609	 1.06000
	456	1	8	-1.08090	29.47581	15.54609	 0.99000
	457	1	6	-1.05000	28.15581	17.12609	 3.30000
	458	1	6	-1.05000	26.45581	15.10609	 3.30000
	459	1	6	-1.05000	25.59581	17.62609	 3.06000
	460	1	2	 0.42500	29.07581	14.79609	 1.43000
	461	1	4	 1.36000	28.50581	16.88609	 0.00000
	462	1	12	 2.10000	27.65581	 9.65609	38.90000
	463	1	12	 2.10000	27.64581	15.67609	38.89000
	464	1	9	-1.18080	27.85581	 9.48609	40.52000
	465	1	9	-1.18080	27.48581	15.70609	40.52000
	466	1	8	-1.08090	30.09581	16.72609	40.59000
	467	1	6	-1.05000	 0.45581	15.15609	38.28000
	468	1	6	-1.05000	27.94581	17.17609	38.29000
	469	1	6	-1.05000	28.80581	14.65609	38.53000
	470	1	2	 0.42500	30.49581	17.47609	40.16000
	471	1	1	 1.57500	25.87581	12.39609	 0.00000
	472	1	12	 2.10000	30.28581	14.13609	38.90000
	473	1	12	 2.10000	30.17581	11.18609	38.89000
	474	1	10	-1.05000	30.47581	13.96609	40.52000
	475	1	9	-1.18080	30.02581	11.21609	40.52000
	476	1	8	-1.08090	27.46581	12.24609	40.59000
	477	1	6	-1.05000	28.78581	10.66609	38.28000
	478	1	6	-1.05000	30.48581	12.68609	38.29000
	479	1	6	-1.05000	 0.38581	10.16609	38.53000
	480	1	2	 0.42500	27.86581	12.99609	40.16000
	481	1	4	 1.36000	 2.72581	19.87609	 0.00000
	482	1	12	 2.10000	 3.48581	18.13609	 2.68000
	483	1	12	 2.10000	 3.58581	21.08609	 2.69000
	484	1	9	-1.18080	 3.28581	18.31609	 1.06000
	485	1	9	-1.18080	 3.73581	21.05609	 1.06000
	486	1	8	-1.08090	 1.13581	20.02609	 0.99000
	487	1	6	-1.05000	30.77581	21.60609	 3.30000
	488	1	6	-1.05000	 3.27581	19.58609	 3.30000
	489	1	6	-1.05000	 2.41581	22.10609	 3.06000
	490	1	2	 0.42500	 0.73581	19.28609	 1.43000
	491	1	1	 1.57500	 0.18581	24.35609	 0.00000
	492	1	12	 2.10000	 0.94581	22.62609	 2.68000
	493	1	12	 2.10000	 1.04581	25.57609	 2.69000
	494	1	10	-1.05000	 0.75581	22.79609	 1.06000
	495	1	10	-1.05000	 1.19581	25.53609	 1.06000
	496	1	7	-0.95000	 3.75581	24.51609	 0.99000
	497	1	6	-1.05000	 2.43581	26.08609	 3.30000
	498	1	6	-1.05000	 0.74581	24.06609	 3.30000
	499	1	6	-1.05000	30.84581	26.58609	 3.06000
	500	1	2	 0.42500	 3.35581	23.76609	 1.43000
	501	1	1	 1.57500	 2.78581	25.84609	 0.00000
	502	1	12	 2.10000	 1.94581	18.61609	38.90000
	503	1	12	 2.10000	 1.92581	24.63609	38.89000
	504	1	9	-1.18080	 2.13581	18.44609	40.52000
	505	1	10	-1.05000	 1.77581	24.66609	40.52000
	506	1	7	-0.95000	 4.37581	25.69609	40.59000
	507	1	6	-1.05000	 5.69581	24.11609	38.28000
	508	1	6	-1.05000	 2.22581	26.13609	38.29000
	509	1	6	-1.05000	 3.08581	23.61609	38.53000
	510	1	2	 0.42500	 4.77581	26.44609	40.16000
	511	1	1	 1.57500	 0.16581	21.36609	 0.00000
	512	1	12	 2.10000	 4.56581	23.10609	38.90000
	513	1	12	 2.10000	 4.46581	20.15609	38.89000
	514	1	10	-1.05000	 4.75581	22.92609	40.52000
	515	1	9	-1.18080	 4.31581	20.18609	40.52000
	516	1	8	-1.08090	 1.75581	21.21609	40.59000
	517	1	6	-1.05000	 3.07581	19.63609	38.28000
	518	1	6	-1.05000	 4.76581	21.65609	38.29000
	519	1	6	-1.05000	 5.62581	19.13609	38.53000
	520	1	2	 0.42500	 2.15581	21.95609	40.16000
	521	1	1	 1.57500	 7.88581	19.87609	 0.00000
	522	1	12	 2.10000	 8.64581	18.13609	 2.68000
	523	1	12	 2.10000	 8.74581	21.08609	 2.69000
	524	1	9	-1.18080	 8.44581	18.31609	 1.06000
	525	1	10	-1.05000	 8.89581	21.05609	 1.06000
	526	1	7	-0.95000	 6.29581	20.02609	 0.99000
	527	1	6	-1.05000	 4.97581	21.60609	 3.30000
	528	1	6	-1.05000	 8.43581	19.58609	 3.30000
	529	1	6	-1.05000	 7.57581	22.10609	 3.06000
	530	1	2	 0.42500	 5.89581	19.28609	 1.43000
	531	1	1	 1.57500	 5.34581	24.35609	 0.00000
	532	1	12	 2.10000	 6.10581	22.62609	 2.68000
	533	1	12	 2.10000	 6.20581	25.57609	 2.69000
	534	1	10	-1.05000	 5.91581	22.79609	 1.06000
	535	1	9	-1.18080	 6.35581	25.53609	 1.06000
	536	1	8	-1.08090	 8.91581	24.51609	 0.99000
	537	1	6	-1.05000	 7.59581	26.08609	 3.30000
	538	1	6	-1.05000	 5.90581	24.06609	 3.30000
	539	1	6	-1.05000	 5.04581	26.58609	 3.06000
	540	1	2	 0.42500	 8.51581	23.76609	 1.43000
	541	1	4	 1.36000	 7.94581	25.84609	 0.00000
	542	1	12	 2.10000	 7.10581	18.61609	38.90000
	543	1	12	 2.10000	 7.08581	24.63609	38.89000
	544	1	9	-1.18080	 7.29581	18.44609	40.52000
	545	1	9	-1.18080	 6.93581	24.66609	40.52000
	546	1	8	-1.08090	 9.53581	25.69609	40.59000
	547	1	6	-1.05000	10.85581	24.11609	38.28000
	548	1	6	-1.05000	 7.38581	26.13609	38.29000
	549	1	6	-1.05000	 8.24581	23.61609	38.53000
	550	1	2	 0.42500	 9.93581	26.44609	40.16000
	551	1	1	 1.57500	 5.32581	21.36609	 0.00000
	552	1	12	 2.10000	 9.72581	23.10609	38.90000
	553	1	12	 2.10000	 9.62581	20.15609	38.89000
	554	1	10	-1.05000	 9.91581	22.92609	40.52000
	555	1	10	-1.05000	 9.47581	20.18609	40.52000
	556	1	7	-0.95000	 6.91581	21.21609	40.59000
	557	1	6	-1.05000	 8.23581	19.63609	38.28000
	558	1	6	-1.05000	 9.92581	21.65609	38.29000
	559	1	6	-1.05000	10.78581	19.13609	38.53000
	560	1	2	 0.42500	 7.31581	21.95609	40.16000
	561	1	4	 1.36000	13.04581	19.87609	 0.00000
	562	1	12	 2.10000	13.80581	18.13609	 2.68000
	563	1	12	 2.10000	13.90581	21.08609	 2.69000
	564	1	9	-1.18080	13.60581	18.31609	 1.06000
	565	1	9	-1.18080	14.05581	21.05609	 1.06000
	566	1	8	-1.08090	11.45581	20.02609	 0.99000
	567	1	6	-1.05000	10.13581	21.60609	 3.30000
	568	1	6	-1.05000	13.59581	19.58609	 3.30000
	569	1	6	-1.05000	12.73581	22.10609	 3.06000
	570	1	2	 0.42500	11.05581	19.28609	 1.43000
	571	1	1	 1.57500	10.50581	24.35609	 0.00000
	572	1	12	 2.10000	11.26581	22.62609	 2.68000
	573	1	12	 2.10000	11.36581	25.57609	 2.69000
	574	1	10	-1.05000	11.07581	22.79609	 1.06000
	575	1	10	-1.05000	11.51581	25.53609	 1.06000
	576	1	7	-0.95000	14.07581	24.51609	 0.99000
	577	1	6	-1.05000	12.75581	26.08609	 3.30000
	578	1	6	-1.05000	11.06581	24.06609	 3.30000
	579	1	6	-1.05000	10.20581	26.58609	 3.06000
	580	1	2	 0.42500	13.67581	23.76609	 1.43000
	581	1	1	 1.57500	13.10581	25.84609	 0.00000
	582	1	12	 2.10000	12.26581	18.61609	38.90000
	583	1	12	 2.10000	12.24581	24.63609	38.89000
	584	1	9	-1.18080	12.45581	18.44609	40.52000
	585	1	10	-1.05000	12.09581	24.66609	40.52000
	586	1	7	-0.95000	14.69581	25.69609	40.59000
	587	1	6	-1.05000	16.01581	24.11609	38.28000
	588	1	6	-1.05000	12.54581	26.13609	38.29000
	589	1	6	-1.05000	13.40581	23.61609	38.53000
	590	1	2	 0.42500	15.09581	26.44609	40.16000
	591	1	1	 1.57500	10.48581	21.36609	 0.00000
	592	1	12	 2.10000	14.88581	23.10609	38.90000
	593	1	12	 2.10000	14.78581	20.15609	38.89000
	594	1	10	-1.05000	15.07581	22.92609	40.52000
	595	1	9	-1.18080	14.63581	20.18609	40.52000
	596	1	8	-1.08090	12.07581	21.21609	40.59000
	597	1	6	-1.05000	13.39581	19.63609	38.28000
	598	1	6	-1.05000	15.08581	21.65609	38.29000
	599	1	6	-1.05000	15.94581	19.13609	38.53000
	600	1	2	 0.42500	12.47581	21.95609	40.16000
	601	1	1	 1.57500	18.20581	19.87609	 0.00000
	602	1	12	 2.10000	18.96581	18.13609	 2.68000
	603	1	12	 2.10000	19.06581	21.08609	 2.69000
	604	1	10	-1.05000	18.76581	18.31609	 1.06000
	605	1	10	-1.05000	19.21581	21.05609	 1.06000
	606	1	7	-0.95000	16.61581	20.02609	 0.99000
	607	1	6	-1.05000	15.29581	21.60609	 3.30000
	608	1	6	-1.05000	18.75581	19.58609	 3.30000
	609	1	6	-1.05000	17.89581	22.10609	 3.06000
	610	1	2	 0.42500	16.21581	19.28609	 1.43000
	611	1	1	 1.57500	15.66581	24.35609	 0.00000
	612	1	12	 2.10000	16.42581	22.62609	 2.68000
	613	1	12	 2.10000	16.52581	25.57609	 2.69000
	614	1	10	-1.05000	16.23581	22.79609	 1.06000
	615	1	10	-1.05000	16.67581	25.53609	 1.06000
	616	1	7	-0.95000	19.23581	24.51609	 0.99000
	617	1	6	-1.05000	17.91581	26.08609	 3.30000
	618	1	6	-1.05000	16.22581	24.06609	 3.30000
	619	1	6	-1.05000	15.36581	26.58609	 3.06000
	620	1	2	 0.42500	18.83581	23.76609	 1.43000
	621	1	1	 1.57500	18.26581	25.84609	 0.00000
	622	1	12	 2.10000	17.42581	18.61609	38.90000
	623	1	12	 2.10000	17.40581	24.63609	38.89000
	624	1	10	-1.05000	17.61581	18.44609	40.52000
	625	1	10	-1.05000	17.25581	24.66609	40.52000
	626	1	7	-0.95000	19.85581	25.69609	40.59000
	627	1	6	-1.05000	21.17581	24.11609	38.28000
	628	1	6	-1.05000	17.70581	26.13609	38.29000
	629	1	6	-1.05000	18.56581	23.61609	38.53000
	630	1	2	 0.42500	20.25581	26.44609	40.16000
	631	1	1	 1.57500	15.64581	21.36609	 0.00000
	632	1	12	 2.10000	20.04581	23.10609	38.90000