LAMMPS input data file #08-Sep-2016 17:09:49

1920 atoms
192 bonds
0 angles
   
8 atom types
2 bond types
0 angle types

0 31.68 xlo xhi
0 36.56 ylo yhi
0 41.58 zlo zhi
       

Masses 

1 26.98154 # Al
2 1.00794 # H
3 24.305 # Mgo
4 15.9941 # O
5 15.9941 # Oh
6 15.9941 # Ohmg
7 15.9941 # Omg
8 28.08538 # Si

Pair Coeffs 

1 5.766555E-08 4.271236 # Al
2 0.000000E+00 0.000000 # H
3 3.915690E-08 5.264321 # Mgo
4 6.738778E-03 3.165541 # O
5 6.738778E-03 3.165541 # Oh
6 6.738778E-03 3.165541 # Ohmg
7 6.738778E-03 3.165541 # Omg
8 7.981159E-08 3.302027 # Si

Atoms 

	46	2	11	 1.57500	 4.88000	 1.92000	 0.00000
	47	2	11	 1.57500	 4.88000	-1.07000	 0.00000
	48	2	11	 1.57500	 7.52000	 6.35000	 0.00000
	49	2	11	 1.57500	 7.52000	 3.25000	 0.00000
	50	2	18	 2.10000	 3.12000	 1.90000	 2.73000
	51	2	18	 2.10000	 0.48000	 3.32000	 2.73000
	52	2	18	 2.10000	 0.48000	 6.21000	 2.73000
	53	2	18	 2.10000	 3.12000	 7.72000	 2.73000
	54	2	18	 2.10000	 1.36000	 7.68000	-2.73000
	55	2	18	 2.10000	 4.00000	 6.25000	-2.73000
	56	2	18	 2.10000	 4.00000	 3.33000	-2.73000
	57	2	18	 2.10000	 1.36000	 1.93000	-2.73000
	58	2	12	 0.42500	 1.43000	 0.55000	 0.87000
	59	2	12	 0.42500	 4.01000	 4.51000	 0.70000
	60	2	12	 0.42500	 3.05000	 9.15000	-0.84000
	61	2	12	 0.42500	 0.51000	 4.82000	-0.58000
	62	2	14	-1.05000	 3.12000	 0.41000	 3.28000
	63	2	14	-1.05000	 1.80000	 2.60000	 3.28000
	64	2	14	-1.05000	 4.44000	 2.65000	 3.28000
	65	2	15	-0.95000	 0.48000	 0.38000	 1.06000
	66	2	17	-1.18080	 3.12000	 1.97000	 1.06000
	67	2	17	-1.18080	 0.48000	 3.24000	 1.06000
	68	2	14	-1.05000	 0.48000	 4.78000	 3.28000
	69	2	14	-1.05000	 4.44000	 6.98000	 3.28000
	70	2	14	-1.05000	 1.80000	 6.97000	 3.28000
	71	2	16	-1.08090	 3.12000	 4.79000	 1.06000
	72	2	14	-1.05000	 0.48000	 6.40000	 1.06000
	73	2	14	-1.05000	 3.12000	 7.64000	 1.06000
	74	2	14	-1.05000	 1.36000	 9.17000	-3.28000
	75	2	14	-1.05000	 2.68000	 6.92000	-3.28000
	76	2	14	-1.05000	 0.04000	 7.03000	-3.28000
	77	2	15	-0.95000	 4.00000	 9.04000	-1.06000
	78	2	14	-1.05000	 1.36000	 7.56000	-1.06000
	79	2	14	-1.05000	 4.00000	 6.32000	-1.06000
	80	2	14	-1.05000	 4.00000	 4.77000	-3.28000
	81	2	14	-1.05000	 0.04000	 2.59000	-3.28000
	82	2	14	-1.05000	 2.68000	 2.62000	-3.28000
	83	2	16	-1.08090	 1.36000	 4.80000	-1.06000
	84	2	17	-1.18080	 4.00000	 3.38000	-1.06000
	85	2	17	-1.18080	 1.36000	 2.07000	-1.06000
	86	2	13	 1.36000	10.16000	 1.92000	 0.00000
	87	2	11	 1.57500	10.16000	-1.07000	 0.00000
	88	2	11	 1.57500	12.80000	 6.35000	 0.00000
	89	2	11	 1.57500	12.80000	 3.25000	 0.00000
	90	2	18	 2.10000	 8.40000	 1.90000	 2.73000
	91	2	18	 2.10000	 5.76000	 3.32000	 2.73000
	92	2	18	 2.10000	 5.76000	 6.21000	 2.73000
	93	2	18	 2.10000	 8.40000	 7.72000	 2.73000
	94	2	18	 2.10000	 6.64000	 7.68000	-2.73000
	95	2	18	 2.10000	 9.28000	 6.25000	-2.73000
	96	2	18	 2.10000	 9.28000	 3.33000	-2.73000
	97	2	18	 2.10000	 6.64000	 1.93000	-2.73000
	98	2	12	 0.42500	 6.71000	 0.55000	 0.87000
	99	2	12	 0.42500	 9.29000	 4.51000	 0.70000
	100	2	12	 0.42500	 8.33000	 9.15000	-0.84000
	101	2	12	 0.42500	 5.79000	 4.82000	-0.58000
	102	2	14	-1.05000	 8.40000	 0.41000	 3.28000
	103	2	14	-1.05000	 7.08000	 2.60000	 3.28000
	104	2	14	-1.05000	 9.72000	 2.65000	 3.28000
	105	2	15	-0.95000	 5.76000	 0.38000	 1.06000
	106	2	17	-1.18080	 8.40000	 1.97000	 1.06000
	107	2	14	-1.05000	 5.76000	 3.24000	 1.06000
	108	2	14	-1.05000	 5.76000	 4.78000	 3.28000
	109	2	14	-1.05000	 9.72000	 6.98000	 3.28000
	110	2	14	-1.05000	 7.08000	 6.97000	 3.28000
	111	2	15	-0.95000	 8.40000	 4.79000	 1.06000
	112	2	14	-1.05000	 5.76000	 6.40000	 1.06000
	113	2	14	-1.05000	 8.40000	 7.64000	 1.06000
	114	2	14	-1.05000	 6.64000	 9.17000	-3.28000
	115	2	14	-1.05000	 7.96000	 6.92000	-3.28000
	116	2	14	-1.05000	 5.32000	 7.03000	-3.28000
	117	2	15	-0.95000	 9.28000	 9.04000	-1.06000
	118	2	14	-1.05000	 6.64000	 7.56000	-1.06000
	119	2	14	-1.05000	 9.28000	 6.32000	-1.06000
	120	2	14	-1.05000	 9.28000	 4.77000	-3.28000
	121	2	14	-1.05000	 5.32000	 2.59000	-3.28000
	122	2	14	-1.05000	 7.96000	 2.62000	-3.28000
	123	2	15	-0.95000	 6.64000	 4.80000	-1.06000
	124	2	17	-1.18080	 9.28000	 3.38000	-1.06000
	125	2	14	-1.05000	 6.64000	 2.07000	-1.06000
	126	2	11	 1.57500	15.44000	 1.92000	 0.00000
	127	2	11	 1.57500	15.44000	-1.07000	 0.00000
	128	2	11	 1.57500	18.08000	 6.35000	 0.00000
	129	2	11	 1.57500	18.08000	 3.25000	 0.00000
	130	2	18	 2.10000	13.68000	 1.90000	 2.73000
	131	2	18	 2.10000	11.04000	 3.32000	 2.73000
	132	2	18	 2.10000	11.04000	 6.21000	 2.73000
	133	2	18	 2.10000	13.68000	 7.72000	 2.73000
	134	2	18	 2.10000	11.92000	 7.68000	-2.73000
	135	2	18	 2.10000	14.56000	 6.25000	-2.73000
	136	2	18	 2.10000	14.56000	 3.33000	-2.73000
	137	2	18	 2.10000	11.92000	 1.93000	-2.73000
	138	2	12	 0.42500	11.99000	 0.55000	 0.87000
	139	2	12	 0.42500	14.57000	 4.51000	 0.70000
	140	2	12	 0.42500	13.61000	 9.15000	-0.84000
	141	2	12	 0.42500	11.07000	 4.82000	-0.58000
	142	2	14	-1.05000	13.68000	 0.41000	 3.28000
	143	2	14	-1.05000	12.36000	 2.60000	 3.28000
	144	2	14	-1.05000	15.00000	 2.65000	 3.28000
	145	2	16	-1.08090	11.04000	 0.38000	 1.06000
	146	2	14	-1.05000	13.68000	 1.97000	 1.06000
	147	2	17	-1.18080	11.04000	 3.24000	 1.06000
	148	2	14	-1.05000	11.04000	 4.78000	 3.28000
	149	2	14	-1.05000	15.00000	 6.98000	 3.28000
	150	2	14	-1.05000	12.36000	 6.97000	 3.28000
	151	2	15	-0.95000	13.68000	 4.79000	 1.06000
	152	2	14	-1.05000	11.04000	 6.40000	 1.06000
	153	2	17	-1.18080	13.68000	 7.64000	 1.06000
	154	2	14	-1.05000	11.92000	 9.17000	-3.28000
	155	2	14	-1.05000	13.24000	 6.92000	-3.28000
	156	2	14	-1.05000	10.60000	 7.03000	-3.28000
	157	2	16	-1.08090	14.56000	 9.04000	-1.06000
	158	2	14	-1.05000	11.92000	 7.56000	-1.06000
	159	2	17	-1.18080	14.56000	 6.32000	-1.06000
	160	2	14	-1.05000	14.56000	 4.77000	-3.28000
	161	2	14	-1.05000	10.60000	 2.59000	-3.28000
	162	2	14	-1.05000	13.24000	 2.62000	-3.28000
	163	2	15	-0.95000	11.92000	 4.80000	-1.06000
	164	2	14	-1.05000	14.56000	 3.38000	-1.06000
	165	2	17	-1.18080	11.92000	 2.07000	-1.06000
	166	2	11	 1.57500	20.72000	 1.92000	 0.00000
	167	2	11	 1.57500	20.72000	-1.07000	 0.00000
	168	2	11	 1.57500	23.36000	 6.35000	 0.00000
	169	2	11	 1.57500	23.36000	 3.25000	 0.00000
	170	2	18	 2.10000	18.96000	 1.90000	 2.73000
	171	2	18	 2.10000	16.32000	 3.32000	 2.73000
	172	2	18	 2.10000	16.32000	 6.21000	 2.73000
	173	2	18	 2.10000	18.96000	 7.72000	 2.73000
	174	2	18	 2.10000	17.20000	 7.68000	-2.73000
	175	2	18	 2.10000	19.84000	 6.25000	-2.73000
	176	2	18	 2.10000	19.84000	 3.33000	-2.73000
	177	2	18	 2.10000	17.20000	 1.93000	-2.73000
	178	2	12	 0.42500	17.27000	 0.55000	 0.87000
	179	2	12	 0.42500	19.85000	 4.51000	 0.70000
	180	2	12	 0.42500	18.89000	 9.15000	-0.84000
	181	2	12	 0.42500	16.35000	 4.82000	-0.58000
	182	2	14	-1.05000	18.96000	 0.41000	 3.28000
	183	2	14	-1.05000	17.64000	 2.60000	 3.28000
	184	2	14	-1.05000	20.28000	 2.65000	 3.28000
	185	2	15	-0.95000	16.32000	 0.38000	 1.06000
	186	2	14	-1.05000	18.96000	 1.97000	 1.06000
	187	2	14	-1.05000	16.32000	 3.24000	 1.06000
	188	2	14	-1.05000	16.32000	 4.78000	 3.28000
	189	2	14	-1.05000	20.28000	 6.98000	 3.28000
	190	2	14	-1.05000	17.64000	 6.97000	 3.28000
	191	2	15	-0.95000	18.96000	 4.79000	 1.06000
	192	2	17	-1.18080	16.32000	 6.40000	 1.06000
	193	2	14	-1.05000	18.96000	 7.64000	 1.06000
	194	2	14	-1.05000	17.20000	 9.17000	-3.28000
	195	2	14	-1.05000	18.52000	 6.92000	-3.28000
	196	2	14	-1.05000	15.88000	 7.03000	-3.28000
	197	2	15	-0.95000	19.84000	 9.04000	-1.06000
	198	2	17	-1.18080	17.20000	 7.56000	-1.06000
	199	2	14	-1.05000	19.84000	 6.32000	-1.06000
	200	2	14	-1.05000	19.84000	 4.77000	-3.28000
	201	2	14	-1.05000	15.88000	 2.59000	-3.28000
	202	2	14	-1.05000	18.52000	 2.62000	-3.28000
	203	2	15	-0.95000	17.20000	 4.80000	-1.06000
	204	2	14	-1.05000	19.84000	 3.38000	-1.06000
	205	2	14	-1.05000	17.20000	 2.07000	-1.06000
	206	2	11	 1.57500	26.00000	 1.92000	 0.00000
	207	2	13	 1.36000	26.00000	-1.07000	 0.00000
	208	2	13	 1.36000	28.64000	 6.35000	 0.00000
	209	2	11	 1.57500	28.64000	 3.25000	 0.00000
	210	2	18	 2.10000	24.24000	 1.90000	 2.73000
	211	2	18	 2.10000	21.60000	 3.32000	 2.73000
	212	2	18	 2.10000	21.60000	 6.21000	 2.73000
	213	2	18	 2.10000	24.24000	 7.72000	 2.73000
	214	2	18	 2.10000	22.48000	 7.68000	-2.73000
	215	2	18	 2.10000	25.12000	 6.25000	-2.73000
	216	2	18	 2.10000	25.12000	 3.33000	-2.73000
	217	2	18	 2.10000	22.48000	 1.93000	-2.73000
	218	2	12	 0.42500	22.55000	 0.55000	 0.87000
	219	2	12	 0.42500	25.13000	 4.51000	 0.70000
	220	2	12	 0.42500	24.17000	 9.15000	-0.84000
	221	2	12	 0.42500	21.63000	 4.82000	-0.58000
	222	2	14	-1.05000	24.24000	 0.41000	 3.28000
	223	2	14	-1.05000	22.92000	 2.60000	 3.28000
	224	2	14	-1.05000	25.56000	 2.65000	 3.28000
	225	2	15	-0.95000	21.60000	 0.38000	 1.06000
	226	2	14	-1.05000	24.24000	 1.97000	 1.06000
	227	2	14	-1.05000	21.60000	 3.24000	 1.06000
	228	2	14	-1.05000	21.60000	 4.78000	 3.28000
	229	2	14	-1.05000	25.56000	 6.98000	 3.28000
	230	2	14	-1.05000	22.92000	 6.97000	 3.28000
	231	2	15	-0.95000	24.24000	 4.79000	 1.06000
	232	2	14	-1.05000	21.60000	 6.40000	 1.06000
	233	2	14	-1.05000	24.24000	 7.64000	 1.06000
	234	2	14	-1.05000	22.48000	 9.17000	-3.28000
	235	2	14	-1.05000	23.80000	 6.92000	-3.28000
	236	2	14	-1.05000	21.16000	 7.03000	-3.28000
	237	2	15	-0.95000	25.12000	 9.04000	-1.06000
	238	2	14	-1.05000	22.48000	 7.56000	-1.06000
	239	2	14	-1.05000	25.12000	 6.32000	-1.06000
	240	2	14	-1.05000	25.12000	 4.77000	-3.28000
	241	2	14	-1.05000	21.16000	 2.59000	-3.28000
	242	2	14	-1.05000	23.80000	 2.62000	-3.28000
	243	2	15	-0.95000	22.48000	 4.80000	-1.06000
	244	2	14	-1.05000	25.12000	 3.38000	-1.06000
	245	2	14	-1.05000	22.48000	 2.07000	-1.06000
	246	2	11	 1.57500	31.28000	 1.92000	 0.00000
	247	2	11	 1.57500	31.28000	-1.07000	 0.00000
	248	2	11	 1.57500	33.92000	 6.35000	 0.00000
	249	2	13	 1.36000	33.92000	 3.25000	 0.00000
	250	2	18	 2.10000	29.52000	 1.90000	 2.73000
	251	2	18	 2.10000	26.88000	 3.32000	 2.73000
	252	2	18	 2.10000	26.88000	 6.21000	 2.73000
	253	2	18	 2.10000	29.52000	 7.72000	 2.73000
	254	2	18	 2.10000	27.76000	 7.68000	-2.73000
	255	2	18	 2.10000	30.40000	 6.25000	-2.73000
	256	2	18	 2.10000	30.40000	 3.33000	-2.73000
	257	2	18	 2.10000	27.76000	 1.93000	-2.73000
	258	2	12	 0.42500	27.83000	 0.55000	 0.87000
	259	2	12	 0.42500	30.41000	 4.51000	 0.70000
	260	2	12	 0.42500	29.45000	 9.15000	-0.84000
	261	2	12	 0.42500	26.91000	 4.82000	-0.58000
	262	2	14	-1.05000	29.52000	 0.41000	 3.28000
	263	2	14	-1.05000	28.20000	 2.60000	 3.28000
	264	2	14	-1.05000	30.84000	 2.65000	 3.28000
	265	2	16	-1.08090	26.88000	 0.38000	 1.06000
	266	2	14	-1.05000	29.52000	 1.97000	 1.06000
	267	2	14	-1.05000	26.88000	 3.24000	 1.06000
	268	2	14	-1.05000	26.88000	 4.78000	 3.28000
	269	2	14	-1.05000	30.84000	 6.98000	 3.28000
	270	2	14	-1.05000	28.20000	 6.97000	 3.28000
	271	2	16	-1.08090	29.52000	 4.79000	 1.06000
	272	2	17	-1.18080	26.88000	 6.40000	 1.06000
	273	2	17	-1.18080	29.52000	 7.64000	 1.06000
	274	2	14	-1.05000	27.76000	 9.17000	-3.28000
	275	2	14	-1.05000	29.08000	 6.92000	-3.28000
	276	2	14	-1.05000	26.44000	 7.03000	-3.28000
	277	2	15	-0.95000	30.40000	 9.04000	-1.06000
	278	2	17	-1.18080	27.76000	 7.56000	-1.06000
	279	2	17	-1.18080	30.40000	 6.32000	-1.06000
	280	2	14	-1.05000	30.40000	 4.77000	-3.28000
	281	2	14	-1.05000	26.44000	 2.59000	-3.28000
	282	2	14	-1.05000	29.08000	 2.62000	-3.28000
	283	2	16	-1.08090	27.76000	 4.80000	-1.06000
	284	2	14	-1.05000	30.40000	 3.38000	-1.06000
	285	2	14	-1.05000	27.76000	 2.07000	-1.06000
	286	2	11	 1.57500	 4.88000	11.06000	 0.00000
	287	2	11	 1.57500	 4.88000	 8.07000	 0.00000
	288	2	13	 1.36000	 7.52000	15.49000	 0.00000
	289	2	11	 1.57500	 7.52000	12.39000	 0.00000
	290	2	18	 2.10000	 3.12000	11.04000	 2.73000
	291	2	18	 2.10000	 0.48000	12.46000	 2.73000
	292	2	18	 2.10000	 0.48000	15.35000	 2.73000
	293	2	18	 2.10000	 3.12000	16.86000	 2.73000
	294	2	18	 2.10000	 1.36000	16.82000	-2.73000
	295	2	18	 2.10000	 4.00000	15.39000	-2.73000
	296	2	18	 2.10000	 4.00000	12.47000	-2.73000
	297	2	18	 2.10000	 1.36000	11.07000	-2.73000
	298	2	12	 0.42500	 1.43000	 9.69000	 0.87000
	299	2	12	 0.42500	 4.01000	13.65000	 0.70000
	300	2	12	 0.42500	 3.05000	18.29000	-0.84000
	301	2	12	 0.42500	 0.51000	13.96000	-0.58000
	302	2	14	-1.05000	 3.12000	 9.55000	 3.28000
	303	2	14	-1.05000	 1.80000	11.74000	 3.28000
	304	2	14	-1.05000	 4.44000	11.79000	 3.28000
	305	2	15	-0.95000	 0.48000	 9.52000	 1.06000
	306	2	17	-1.18080	 3.12000	11.11000	 1.06000
	307	2	17	-1.18080	 0.48000	12.38000	 1.06000
	308	2	14	-1.05000	 0.48000	13.92000	 3.28000
	309	2	14	-1.05000	 4.44000	16.12000	 3.28000
	310	2	14	-1.05000	 1.80000	16.11000	 3.28000
	311	2	16	-1.08090	 3.12000	13.93000	 1.06000
	312	2	14	-1.05000	 0.48000	15.54000	 1.06000
	313	2	14	-1.05000	 3.12000	16.78000	 1.06000
	314	2	14	-1.05000	 1.36000	18.31000	-3.28000
	315	2	14	-1.05000	 2.68000	16.06000	-3.28000
	316	2	14	-1.05000	 0.04000	16.17000	-3.28000
	317	2	15	-0.95000	 4.00000	18.18000	-1.06000
	318	2	14	-1.05000	 1.36000	16.70000	-1.06000
	319	2	14	-1.05000	 4.00000	15.46000	-1.06000
	320	2	14	-1.05000	 4.00000	13.91000	-3.28000
	321	2	14	-1.05000	 0.04000	11.73000	-3.28000
	322	2	14	-1.05000	 2.68000	11.76000	-3.28000
	323	2	16	-1.08090	 1.36000	13.94000	-1.06000
	324	2	17	-1.18080	 4.00000	12.52000	-1.06000
	325	2	17	-1.18080	 1.36000	11.21000	-1.06000
	326	2	11	 1.57500	10.16000	11.06000	 0.00000
	327	2	11	 1.57500	10.16000	 8.07000	 0.00000
	328	2	11	 1.57500	12.80000	15.49000	 0.00000
	329	2	11	 1.57500	12.80000	12.39000	 0.00000
	330	2	18	 2.10000	 8.40000	11.04000	 2.73000
	331	2	18	 2.10000	 5.76000	12.46000	 2.73000
	332	2	18	 2.10000	 5.76000	15.35000	 2.73000
	333	2	18	 2.10000	 8.40000	16.86000	 2.73000
	334	2	18	 2.10000	 6.64000	16.82000	-2.73000
	335	2	18	 2.10000	 9.28000	15.39000	-2.73000
	336	2	18	 2.10000	 9.28000	12.47000	-2.73000
	337	2	18	 2.10000	 6.64000	11.07000	-2.73000
	338	2	12	 0.42500	 6.71000	 9.69000	 0.87000
	339	2	12	 0.42500	 9.29000	13.65000	 0.70000
	340	2	12	 0.42500	 8.33000	18.29000	-0.84000
	341	2	12	 0.42500	 5.79000	13.96000	-0.58000
	342	2	14	-1.05000	 8.40000	 9.55000	 3.28000
	343	2	14	-1.05000	 7.08000	11.74000	 3.28000
	344	2	14	-1.05000	 9.72000	11.79000	 3.28000
	345	2	15	-0.95000	 5.76000	 9.52000	 1.06000
	346	2	14	-1.05000	 8.40000	11.11000	 1.06000
	347	2	14	-1.05000	 5.76000	12.38000	 1.06000
	348	2	14	-1.05000	 5.76000	13.92000	 3.28000
	349	2	14	-1.05000	 9.72000	16.12000	 3.28000
	350	2	14	-1.05000	 7.08000	16.11000	 3.28000
	351	2	16	-1.08090	 8.40000	13.93000	 1.06000
	352	2	17	-1.18080	 5.76000	15.54000	 1.06000
	353	2	17	-1.18080	 8.40000	16.78000	 1.06000
	354	2	14	-1.05000	 6.64000	18.31000	-3.28000
	355	2	14	-1.05000	 7.96000	16.06000	-3.28000
	356	2	14	-1.05000	 5.32000	16.17000	-3.28000
	357	2	15	-0.95000	 9.28000	18.18000	-1.06000
	358	2	17	-1.18080	 6.64000	16.70000	-1.06000
	359	2	17	-1.18080	 9.28000	15.46000	-1.06000
	360	2	14	-1.05000	 9.28000	13.91000	-3.28000
	361	2	14	-1.05000	 5.32000	11.73000	-3.28000
	362	2	14	-1.05000	 7.96000	11.76000	-3.28000
	363	2	16	-1.08090	 6.64000	13.94000	-1.06000
	364	2	14	-1.05000	 9.28000	12.52000	-1.06000
	365	2	14	-1.05000	 6.64000	11.21000	-1.06000
	366	2	11	 1.57500	15.44000	11.06000	 0.00000
	367	2	13	 1.36000	15.44000	 8.07000	 0.00000
	368	2	11	 1.57500	18.08000	15.49000	 0.00000
	369	2	11	 1.57500	18.08000	12.39000	 0.00000
	370	2	18	 2.10000	13.68000	11.04000	 2.73000
	371	2	18	 2.10000	11.04000	12.46000	 2.73000
	372	2	18	 2.10000	11.04000	15.35000	 2.73000
	373	2	18	 2.10000	13.68000	16.86000	 2.73000
	374	2	18	 2.10000	11.92000	16.82000	-2.73000
	375	2	18	 2.10000	14.56000	15.39000	-2.73000
	376	2	18	 2.10000	14.56000	12.47000	-2.73000
	377	2	18	 2.10000	11.92000	11.07000	-2.73000
	378	2	12	 0.42500	11.99000	 9.69000	 0.87000
	379	2	12	 0.42500	14.57000	13.65000	 0.70000
	380	2	12	 0.42500	13.61000	18.29000	-0.84000
	381	2	12	 0.42500	11.07000	13.96000	-0.58000
	382	2	14	-1.05000	13.68000	 9.55000	 3.28000
	383	2	14	-1.05000	12.36000	11.74000	 3.28000
	384	2	14	-1.05000	15.00000	11.79000	 3.28000
	385	2	15	-0.95000	11.04000	 9.52000	 1.06000
	386	2	14	-1.05000	13.68000	11.11000	 1.06000
	387	2	14	-1.05000	11.04000	12.38000	 1.06000
	388	2	14	-1.05000	11.04000	13.92000	 3.28000
	389	2	14	-1.05000	15.00000	16.12000	 3.28000
	390	2	14	-1.05000	12.36000	16.11000	 3.28000
	391	2	15	-0.95000	13.68000	13.93000	 1.06000
	392	2	14	-1.05000	11.04000	15.54000	 1.06000
	393	2	14	-1.05000	13.68000	16.78000	 1.06000
	394	2	14	-1.05000	11.92000	18.31000	-3.28000
	395	2	14	-1.05000	13.24000	16.06000	-3.28000
	396	2	14	-1.05000	10.60000	16.17000	-3.28000
	397	2	15	-0.95000	14.56000	18.18000	-1.06000
	398	2	14	-1.05000	11.92000	16.70000	-1.06000
	399	2	14	-1.05000	14.56000	15.46000	-1.06000
	400	2	14	-1.05000	14.56000	13.91000	-3.28000
	401	2	14	-1.05000	10.60000	11.73000	-3.28000
	402	2	14	-1.05000	13.24000	11.76000	-3.28000
	403	2	15	-0.95000	11.92000	13.94000	-1.06000
	404	2	14	-1.05000	14.56000	12.52000	-1.06000
	405	2	14	-1.05000	11.92000	11.21000	-1.06000
	406	2	11	 1.57500	20.72000	11.06000	 0.00000
	407	2	11	 1.57500	20.72000	 8.07000	 0.00000
	408	2	13	 1.36000	23.36000	15.49000	 0.00000
	409	2	11	 1.57500	23.36000	12.39000	 0.00000
	410	2	18	 2.10000	18.96000	11.04000	 2.73000
	411	2	18	 2.10000	16.32000	12.46000	 2.73000
	412	2	18	 2.10000	16.32000	15.35000	 2.73000
	413	2	18	 2.10000	18.96000	16.86000	 2.73000
	414	2	18	 2.10000	17.20000	16.82000	-2.73000
	415	2	18	 2.10000	19.84000	15.39000	-2.73000
	416	2	18	 2.10000	19.84000	12.47000	-2.73000
	417	2	18	 2.10000	17.20000	11.07000	-2.73000
	418	2	12	 0.42500	17.27000	 9.69000	 0.87000
	419	2	12	 0.42500	19.85000	13.65000	 0.70000
	420	2	12	 0.42500	18.89000	18.29000	-0.84000
	421	2	12	 0.42500	16.35000	13.96000	-0.58000
	422	2	14	-1.05000	18.96000	 9.55000	 3.28000
	423	2	14	-1.05000	17.64000	11.74000	 3.28000
	424	2	14	-1.05000	20.28000	11.79000	 3.28000
	425	2	16	-1.08090	16.32000	 9.52000	 1.06000
	426	2	14	-1.05000	18.96000	11.11000	 1.06000
	427	2	14	-1.05000	16.32000	12.38000	 1.06000
	428	2	14	-1.05000	16.32000	13.92000	 3.28000
	429	2	14	-1.05000	20.28000	16.12000	 3.28000
	430	2	14	-1.05000	17.64000	16.11000	 3.28000
	431	2	15	-0.95000	18.96000	13.93000	 1.06000
	432	2	14	-1.05000	16.32000	15.54000	 1.06000
	433	2	14	-1.05000	18.96000	16.78000	 1.06000
	434	2	14	-1.05000	17.20000	18.31000	-3.28000
	435	2	14	-1.05000	18.52000	16.06000	-3.28000
	436	2	14	-1.05000	15.88000	16.17000	-3.28000
	437	2	15	-0.95000	19.84000	18.18000	-1.06000
	438	2	14	-1.05000	17.20000	16.70000	-1.06000
	439	2	14	-1.05000	19.84000	15.46000	-1.06000
	440	2	14	-1.05000	19.84000	13.91000	-3.28000
	441	2	14	-1.05000	15.88000	11.73000	-3.28000
	442	2	14	-1.05000	18.52000	11.76000	-3.28000
	443	2	15	-0.95000	17.20000	13.94000	-1.06000
	444	2	14	-1.05000	19.84000	12.52000	-1.06000
	445	2	14	-1.05000	17.20000	11.21000	-1.06000
	446	2	11	 1.57500	26.00000	11.06000	 0.00000
	447	2	11	 1.57500	26.00000	 8.07000	 0.00000
	448	2	11	 1.57500	28.64000	15.49000	 0.00000
	449	2	11	 1.57500	28.64000	12.39000	 0.00000
	450	2	18	 2.10000	24.24000	11.04000	 2.73000
	451	2	18	 2.10000	21.60000	12.46000	 2.73000
	452	2	18	 2.10000	21.60000	15.35000	 2.73000
	453	2	18	 2.10000	24.24000	16.86000	 2.73000
	454	2	18	 2.10000	22.48000	16.82000	-2.73000
	455	2	18	 2.10000	25.12000	15.39000	-2.73000
	456	2	18	 2.10000	25.12000	12.47000	-2.73000
	457	2	18	 2.10000	22.48000	11.07000	-2.73000
	458	2	12	 0.42500	22.55000	 9.69000	 0.87000
	459	2	12	 0.42500	25.13000	13.65000	 0.70000
	460	2	12	 0.42500	24.17000	18.29000	-0.84000
	461	2	12	 0.42500	21.63000	13.96000	-0.58000
	462	2	14	-1.05000	24.24000	 9.55000	 3.28000
	463	2	14	-1.05000	22.92000	11.74000	 3.28000
	464	2	14	-1.05000	25.56000	11.79000	 3.28000
	465	2	15	-0.95000	21.60000	 9.52000	 1.06000
	466	2	14	-1.05000	24.24000	11.11000	 1.06000
	467	2	14	-1.05000	21.60000	12.38000	 1.06000
	468	2	14	-1.05000	21.60000	13.92000	 3.28000
	469	2	14	-1.05000	25.56000	16.12000	 3.28000
	470	2	14	-1.05000	22.92000	16.11000	 3.28000
	471	2	16	-1.08090	24.24000	13.93000	 1.06000
	472	2	17	-1.18080	21.60000	15.54000	 1.06000
	473	2	17	-1.18080	24.24000	16.78000	 1.06000
	474	2	14	-1.05000	22.48000	18.31000	-3.28000
	475	2	14	-1.05000	23.80000	16.06000	-3.28000
	476	2	14	-1.05000	21.16000	16.17000	-3.28000
	477	2	15	-0.95000	25.12000	18.18000	-1.06000
	478	2	17	-1.18080	22.48000	16.70000	-1.06000
	479	2	17	-1.18080	25.12000	15.46000	-1.06000
	480	2	14	-1.05000	25.12000	13.91000	-3.28000
	481	2	14	-1.05000	21.16000	11.73000	-3.28000
	482	2	14	-1.05000	23.80000	11.76000	-3.28000
	483	2	16	-1.08090	22.48000	13.94000	-1.06000
	484	2	14	-1.05000	25.12000	12.52000	-1.06000
	485	2	14	-1.05000	22.48000	11.21000	-1.06000
	486	2	11	 1.57500	31.28000	11.06000	 0.00000
	487	2	11	 1.57500	31.28000	 8.07000	 0.00000
	488	2	11	 1.57500	33.92000	15.49000	 0.00000
	489	2	13	 1.36000	33.92000	12.39000	 0.00000
	490	2	18	 2.10000	29.52000	11.04000	 2.73000
	491	2	18	 2.10000	26.88000	12.46000	 2.73000
	492	2	18	 2.10000	26.88000	15.35000	 2.73000
	493	2	18	 2.10000	29.52000	16.86000	 2.73000
	494	2	18	 2.10000	27.76000	16.82000	-2.73000
	495	2	18	 2.10000	30.40000	15.39000	-2.73000
	496	2	18	 2.10000	30.40000	12.47000	-2.73000
	497	2	18	 2.10000	27.76000	11.07000	-2.73000
	498	2	12	 0.42500	27.83000	 9.69000	 0.87000
	499	2	12	 0.42500	30.41000	13.65000	 0.70000
	500	2	12	 0.42500	29.45000	18.29000	-0.84000
	501	2	12	 0.42500	26.91000	13.96000	-0.58000
	502	2	14	-1.05000	29.52000	 9.55000	 3.28000
	503	2	14	-1.05000	28.20000	11.74000	 3.28000
	504	2	14	-1.05000	30.84000	11.79000	 3.28000
	505	2	15	-0.95000	26.88000	 9.52000	 1.06000
	506	2	14	-1.05000	29.52000	11.11000	 1.06000
	507	2	14	-1.05000	26.88000	12.38000	 1.06000
	508	2	14	-1.05000	26.88000	13.92000	 3.28000
	509	2	14	-1.05000	30.84000	16.12000	 3.28000
	510	2	14	-1.05000	28.20000	16.11000	 3.28000
	511	2	15	-0.95000	29.52000	13.93000	 1.06000
	512	2	14	-1.05000	26.88000	15.54000	 1.06000
	513	2	14	-1.05000	29.52000	16.78000	 1.06000
	514	2	14	-1.05000	27.76000	18.31000	-3.28000
	515	2	14	-1.05000	29.08000	16.06000	-3.28000
	516	2	14	-1.05000	26.44000	16.17000	-3.28000
	517	2	15	-0.95000	30.40000	18.18000	-1.06000
	518	2	14	-1.05000	27.76000	16.70000	-1.06000
	519	2	14	-1.05000	30.40000	15.46000	-1.06000
	520	2	14	-1.05000	30.40000	13.91000	-3.28000
	521	2	14	-1.05000	26.44000	11.73000	-3.28000
	522	2	14	-1.05000	29.08000	11.76000	-3.28000
	523	2	15	-0.95000	27.76000	13.94000	-1.06000
	524	2	14	-1.05000	30.40000	12.52000	-1.06000
	525	2	14	-1.05000	27.76000	11.21000	-1.06000
	526	2	11	 1.57500	 4.88000	20.20000	 0.00000
	527	2	11	 1.57500	 4.88000	17.21000	 0.00000
	528	2	11	 1.57500	 7.52000	24.63000	 0.00000
	529	2	13	 1.36000	 7.52000	21.53000	 0.00000
	530	2	18	 2.10000	 3.12000	20.18000	 2.73000
	531	2	18	 2.10000	 0.48000	21.60000	 2.73000
	532	2	18	 2.10000	 0.48000	24.49000	 2.73000
	533	2	18	 2.10000	 3.12000	26.00000	 2.73000
	534	2	18	 2.10000	 1.36000	25.96000	-2.73000
	535	2	18	 2.10000	 4.00000	24.53000	-2.73000
	536	2	18	 2.10000	 4.00000	21.61000	-2.73000
	537	2	18	 2.10000	 1.36000	20.21000	-2.73000
	538	2	12	 0.42500	 1.43000	18.83000	 0.87000
	539	2	12	 0.42500	 4.01000	22.79000	 0.70000
	540	2	12	 0.42500	 3.05000	27.43000	-0.84000
	541	2	12	 0.42500	 0.51000	23.10000	-0.58000
	542	2	14	-1.05000	 3.12000	18.69000	 3.28000
	543	2	14	-1.05000	 1.80000	20.88000	 3.28000
	544	2	14	-1.05000	 4.44000	20.93000	 3.28000
	545	2	15	-0.95000	 0.48000	18.66000	 1.06000
	546	2	14	-1.05000	 3.12000	20.25000	 1.06000
	547	2	14	-1.05000	 0.48000	21.52000	 1.06000
	548	2	14	-1.05000	 0.48000	23.06000	 3.28000
	549	2	14	-1.05000	 4.44000	25.26000	 3.28000
	550	2	14	-1.05000	 1.80000	25.25000	 3.28000
	551	2	16	-1.08090	 3.12000	23.07000	 1.06000
	552	2	17	-1.18080	 0.48000	24.68000	 1.06000
	553	2	17	-1.18080	 3.12000	25.92000	 1.06000
	554	2	14	-1.05000	 1.36000	27.45000	-3.28000
	555	2	14	-1.05000	 2.68000	25.20000	-3.28000
	556	2	14	-1.05000	 0.04000	25.31000	-3.28000
	557	2	15	-0.95000	 4.00000	27.32000	-1.06000
	558	2	17	-1.18080	 1.36000	25.84000	-1.06000
	559	2	17	-1.18080	 4.00000	24.60000	-1.06000
	560	2	14	-1.05000	 4.00000	23.05000	-3.28000
	561	2	14	-1.05000	 0.04000	20.87000	-3.28000
	562	2	14	-1.05000	 2.68000	20.90000	-3.28000
	563	2	16	-1.08090	 1.36000	23.08000	-1.06000
	564	2	14	-1.05000	 4.00000	21.66000	-1.06000
	565	2	14	-1.05000	 1.36000	20.35000	-1.06000
	566	2	11	 1.57500	10.16000	20.20000	 0.00000
	567	2	11	 1.57500	10.16000	17.21000	 0.00000
	568	2	11	 1.57500	12.80000	24.63000	 0.00000
	569	2	11	 1.57500	12.80000	21.53000	 0.00000
	570	2	18	 2.10000	 8.40000	20.18000	 2.73000
	571	2	18	 2.10000	 5.76000	21.60000	 2.73000
	572	2	18	 2.10000	 5.76000	24.49000	 2.73000
	573	2	18	 2.10000	 8.40000	26.00000	 2.73000
	574	2	18	 2.10000	 6.64000	25.96000	-2.73000
	575	2	18	 2.10000	 9.28000	24.53000	-2.73000
	576	2	18	 2.10000	 9.28000	21.61000	-2.73000
	577	2	18	 2.10000	 6.64000	20.21000	-2.73000
	578	2	12	 0.42500	 6.71000	18.83000	 0.87000
	579	2	12	 0.42500	 9.29000	22.79000	 0.70000
	580	2	12	 0.42500	 8.33000	27.43000	-0.84000
	581	2	12	 0.42500	 5.79000	23.10000	-0.58000
	582	2	14	-1.05000	 8.40000	18.69000	 3.28000
	583	2	14	-1.05000	 7.08000	20.88000	 3.28000
	584	2	14	-1.05000	 9.72000	20.93000	 3.28000
	585	2	15	-0.95000	 5.76000	18.66000	 1.06000
	586	2	17	-1.18080	 8.40000	20.25000	 1.06000
	587	2	17	-1.18080	 5.76000	21.52000	 1.06000
	588	2	14	-1.05000	 5.76000	23.06000	 3.28000
	589	2	14	-1.05000	 9.72000	25.26000	 3.28000
	590	2	14	-1.05000	 7.08000	25.25000	 3.28000
	591	2	16	-1.08090	 8.40000	23.07000	 1.06000
	592	2	14	-1.05000	 5.76000	24.68000	 1.06000
	593	2	14	-1.05000	 8.40000	25.92000	 1.06000
	594	2	14	-1.05000	 6.64000	27.45000	-3.28000
	595	2	14	-1.05000	 7.96000	25.20000	-3.28000
	596	2	14	-1.05000	 5.32000	25.31000	-3.28000
	597	2	16	-1.08090	 9.28000	27.32000	-1.06000
	598	2	14	-1.05000	 6.64000	25.84000	-1.06000
	599	2	14	-1.05000	 9.28000	24.60000	-1.06000
	600	2	14	-1.05000	 9.28000	23.05000	-3.28000
	601	2	14	-1.05000	 5.32000	20.87000	-3.28000
	602	2	14	-1.05000	 7.96000	20.90000	-3.28000
	603	2	16	-1.08090	 6.64000	23.08000	-1.06000
	604	2	17	-1.18080	 9.28000	21.66000	-1.06000
	605	2	17	-1.18080	 6.64000	20.35000	-1.06000
	606	2	11	 1.57500	15.44000	20.20000	 0.00000
	607	2	11	 1.57500	15.44000	17.21000	 0.00000
	608	2	11	 1.57500	18.08000	24.63000	 0.00000
	609	2	13	 1.36000	18.08000	21.53000	 0.00000
	610	2	18	 2.10000	13.68000	20.18000	 2.73000
	611	2	18	 2.10000	11.04000	21.60000	 2.73000
	612	2	18	 2.10000	11.04000	24.49000	 2.73000
	613	2	18	 2.10000	13.68000	26.00000	 2.73000
	614	2	18	 2.10000	11.92000	25.96000	-2.73000
	615	2	18	 2.10000	14.56000	24.53000	-2.73000
	616	2	18	 2.10000	14.56000	21.61000	-2.73000
	617	2	18	 2.10000	11.92000	20.21000	-2.73000
	618	2	12	 0.42500	11.99000	18.83000	 0.87000
	619	2	12	 0.42500	14.57000	22.79000	 0.70000
	620	2	12	 0.42500	13.61000	27.43000	-0.84000
	621	2	12	 0.42500	11.07000	23.10000	-0.58000
	622	2	14	-1.05000	13.68000	18.69000	 3.28000
	623	2	14	-1.05000	12.36000	20.88000	 3.28000
	624	2	14	-1.05000	15.00000	20.93000	 3.28000
	625	2	15	-0.95000	11.04000	18.66000	 1.06000
	626	2	14	-1.05000	13.68000	20.25000	 1.06000
	627	2	14	-1.05000	11.04000	21.52000	 1.06000
	628	2	14	-1.05000	11.04000	23.06000	 3.28000
	629	2	14	-1.05000	15.00000	25.26000	 3.28000
	630	2	14	-1.05000	12.36000	25.25000	 3.28000
	631	2	15	-0.95000	13.68000	23.07000	 1.06000
	632	2	14	-1.05000	11.04000	24.68000	 1.06000
	633	2	14	-1.05000	13.68000	25.92000	 1.06000
	634	2	14	-1.05000	11.92000	27.45000	-3.28000
	635	2	14	-1.05000	13.24000	25.20000	-3.28000
	636	2	14	-1.05000	10.60000	25.31000	-3.28000
	637	2	15	-0.95000	14.56000	27.32000	-1.06000
	638	2	14	-1.05000	11.92000	25.84000	-1.06000
	639	2	14	-1.05000	14.56000	24.60000	-1.06000
	640	2	14	-1.05000	14.56000	23.05000	-3.28000
	641	2	14	-1.05000	10.60000	20.87000	-3.28000
	642	2	14	-1.05000	13.24000	20.90000	-3.28000
	643	2	15	-0.95000	11.92000	23.08000	-1.06000
	644	2	14	-1.05000	14.56000	21.66000	-1.06000
	645	2	14	-1.05000	11.92000	20.35000	-1.06000
	646	2	11	 1.57500	20.72000	20.20000	 0.00000
	647	2	11	 1.57500	20.72000	17.21000	 0.00000
	648	2	11	 1.57500	23.36000	24.63000	 0.00000
	649	2	11	 1.57500	23.36000	21.53000	 0.00000
	650	2	18	 2.10000	18.96000	20.18000	 2.73000
	651	2	18	 2.10000	16.32000	21.60000	 2.73000
	652	2	18	 2.10000	16.32000	24.49000	 2.73000
	653	2	18	 2.10000	18.96000	26.00000	 2.73000
	654	2	18	 2.10000	17.20000	25.96000	-2.73000
	655	2	18	 2.10000	19.84000	24.53000	-2.73000
	656	2	18	 2.10000	19.84000	21.61000	-2.73000
	657	2	18	 2.10000	17.20000	20.21000	-2.73000
	658	2	12	 0.42500	17.27000	18.83000	 0.87000
	659	2	12	 0.42500	19.85000	22.79000	 0.70000
	660	2	12	 0.42500	18.89000	27.43000	-0.84000
	661	2	12	 0.42500	16.35000	23.10000	-0.58000
	662	2	14	-1.05000	18.96000	18.69000	 3.28000
	663	2	14	-1.05000	17.64000	20.88000	 3.28000
	664	2	14	-1.05000	20.28000	20.93000	 3.28000
	665	2	15	-0.95000	16.32000	18.66000	 1.06000
	666	2	17	-1.18080	18.96000	20.25000	 1.06000
	667	2	17	-1.18080	16.32000	21.52000	 1.06000
	668	2	14	-1.05000	16.32000	23.06000	 3.28000
	669	2	14	-1.05000	20.28000	25.26000	 3.28000
	670	2	14	-1.05000	17.64000	25.25000	 3.28000
	671	2	16	-1.08090	18.96000	23.07000	 1.06000