LAMMPS input data file #07-Feb-2020 10:34:19

960 atoms
96 bonds
0 angles
0 dihedrals
   
6 atom types
1 bond types
0 angle types
0 dihedral types

0 30.96 xlo xhi
0 35.8632 ylo yhi
0 9.189704 zlo zhi
0 -1.696576 0 xy xz yz
Masses 

1 10 # ao
2 10 # ho
3 15.99941 # ob
4 15.99941 # oh
5 15.99941 # op
6 10 # st

Pair Coeffs 

1 0.000000E+00 0.000000 # ao
2 0.000000E+00 0.000000 # ho
3 6.939839E-03 3.385415 # ob
4 6.738778E-03 3.165541 # oh
5 6.738778E-03 3.165541 # op
6 0.000000E+00 0.000000 # st

Atoms 

	1	1	1	 1.57500	 2.57800	 1.49800	-0.00100
	2	1	6	 2.10000	 3.34900	-0.02500	 2.68100
	3	1	6	 2.10000	 3.42300	 2.92300	 2.68600
	4	1	5	-1.05000	 3.15600	 0.01700	 1.06100
	5	1	5	-1.05000	 3.57800	 2.76200	 1.06400
	6	1	4	-0.95000	 0.98400	 1.72800	 0.99300
	7	1	3	-1.05000	-0.35200	 3.49100	 3.29800
	8	1	3	-1.05000	 3.13400	 1.47100	 3.29400
	9	1	3	-1.05000	 2.24900	 3.97100	 3.05600
	10	1	2	 0.42500	 0.59200	 1.01700	 1.42400
	11	1	1	 1.57500	 2.58200	 7.46800	 0.00100
	12	1	6	 2.10000	 1.81100	 0.02500	-2.68100
	13	1	6	 2.10000	 1.73700	 6.04300	-2.68600
	14	1	5	-1.05000	 2.00400	-0.01700	-1.06100
	15	1	5	-1.05000	 1.58200	 6.20400	-1.06400
	16	1	4	-0.95000	 4.17600	 7.23800	-0.99300
	17	1	3	-1.05000	 0.35200	 5.47400	-3.29800
	18	1	3	-1.05000	 2.02700	 7.49500	-3.29400
	19	1	3	-1.05000	 2.91100	 4.99500	-3.05600
	20	1	2	 0.42500	 4.56800	 7.94900	-1.42400
	21	1	1	 1.57500	-0.00300	 5.98100	-0.00100
	22	1	6	 2.10000	 0.76900	 4.45800	 2.68100
	23	1	6	 2.10000	 0.84300	 7.40600	 2.68600
	24	1	5	-1.05000	 0.57600	 4.50000	 1.06100
	25	1	5	-1.05000	 0.99700	 7.24400	 1.06400
	26	1	4	-0.95000	 3.56400	 6.21100	 0.99300
	27	1	3	-1.05000	 2.22800	 7.97400	 3.29800
	28	1	3	-1.05000	 0.55400	 5.95300	 3.29400
	29	1	3	-1.05000	-0.33100	 8.45400	 3.05600
	30	1	2	 0.42500	 3.17200	 5.50000	 1.42400
	31	1	1	 1.57500	 0.00200	 2.98500	 0.00100
	32	1	6	 2.10000	 4.39200	 4.50800	-2.68100
	33	1	6	 2.10000	 4.31700	 1.56000	-2.68600
	34	1	5	-1.05000	 4.58500	 4.46600	-1.06100
	35	1	5	-1.05000	 4.16200	 1.72100	-1.06400
	36	1	4	-0.95000	 1.59600	 2.75500	-0.99300
	37	1	3	-1.05000	 2.93200	 0.99200	-3.29800
	38	1	3	-1.05000	 4.60700	 3.01200	-3.29400
	39	1	3	-1.05000	 0.33100	 0.51200	-3.05600
	40	1	2	 0.42500	 1.98800	 3.46600	-1.42400
	41	1	1	 1.57500	 7.73800	 1.49800	-0.00100
	42	1	6	 2.10000	 8.50900	-0.02500	 2.68100
	43	1	6	 2.10000	 8.58300	 2.92300	 2.68600
	44	1	5	-1.05000	 8.31600	 0.01700	 1.06100
	45	1	5	-1.05000	 8.73800	 2.76200	 1.06400
	46	1	4	-0.95000	 6.14400	 1.72800	 0.99300
	47	1	3	-1.05000	 4.80800	 3.49100	 3.29800
	48	1	3	-1.05000	 8.29400	 1.47100	 3.29400
	49	1	3	-1.05000	 7.40900	 3.97100	 3.05600
	50	1	2	 0.42500	 5.75200	 1.01700	 1.42400
	51	1	1	 1.57500	 7.74200	 7.46800	 0.00100
	52	1	6	 2.10000	 6.97100	 0.02500	-2.68100
	53	1	6	 2.10000	 6.89700	 6.04300	-2.68600
	54	1	5	-1.05000	 7.16400	-0.01700	-1.06100
	55	1	5	-1.05000	 6.74200	 6.20400	-1.06400
	56	1	4	-0.95000	 9.33600	 7.23800	-0.99300
	57	1	3	-1.05000	 5.51200	 5.47400	-3.29800
	58	1	3	-1.05000	 7.18700	 7.49500	-3.29400
	59	1	3	-1.05000	 8.07100	 4.99500	-3.05600
	60	1	2	 0.42500	 9.72800	 7.94900	-1.42400
	61	1	1	 1.57500	 5.15700	 5.98100	-0.00100
	62	1	6	 2.10000	 5.92900	 4.45800	 2.68100
	63	1	6	 2.10000	 6.00300	 7.40600	 2.68600
	64	1	5	-1.05000	 5.73600	 4.50000	 1.06100
	65	1	5	-1.05000	 6.15700	 7.24400	 1.06400
	66	1	4	-0.95000	 8.72400	 6.21100	 0.99300
	67	1	3	-1.05000	 7.38800	 7.97400	 3.29800
	68	1	3	-1.05000	 5.71400	 5.95300	 3.29400
	69	1	3	-1.05000	 4.82900	 8.45400	 3.05600
	70	1	2	 0.42500	 8.33200	 5.50000	 1.42400
	71	1	1	 1.57500	 5.16200	 2.98500	 0.00100
	72	1	6	 2.10000	 9.55200	 4.50800	-2.68100
	73	1	6	 2.10000	 9.47700	 1.56000	-2.68600
	74	1	5	-1.05000	 9.74500	 4.46600	-1.06100
	75	1	5	-1.05000	 9.32200	 1.72100	-1.06400
	76	1	4	-0.95000	 6.75600	 2.75500	-0.99300
	77	1	3	-1.05000	 8.09200	 0.99200	-3.29800
	78	1	3	-1.05000	 9.76700	 3.01200	-3.29400
	79	1	3	-1.05000	 5.49100	 0.51200	-3.05600
	80	1	2	 0.42500	 7.14800	 3.46600	-1.42400
	81	1	1	 1.57500	12.89800	 1.49800	-0.00100
	82	1	6	 2.10000	13.66900	-0.02500	 2.68100
	83	1	6	 2.10000	13.74300	 2.92300	 2.68600
	84	1	5	-1.05000	13.47600	 0.01700	 1.06100
	85	1	5	-1.05000	13.89800	 2.76200	 1.06400
	86	1	4	-0.95000	11.30400	 1.72800	 0.99300
	87	1	3	-1.05000	 9.96800	 3.49100	 3.29800
	88	1	3	-1.05000	13.45400	 1.47100	 3.29400
	89	1	3	-1.05000	12.56900	 3.97100	 3.05600
	90	1	2	 0.42500	10.91200	 1.01700	 1.42400
	91	1	1	 1.57500	12.90200	 7.46800	 0.00100
	92	1	6	 2.10000	12.13100	 0.02500	-2.68100
	93	1	6	 2.10000	12.05700	 6.04300	-2.68600
	94	1	5	-1.05000	12.32400	-0.01700	-1.06100
	95	1	5	-1.05000	11.90200	 6.20400	-1.06400
	96	1	4	-0.95000	14.49600	 7.23800	-0.99300
	97	1	3	-1.05000	10.67200	 5.47400	-3.29800
	98	1	3	-1.05000	12.34700	 7.49500	-3.29400
	99	1	3	-1.05000	13.23100	 4.99500	-3.05600
	100	1	2	 0.42500	14.88800	 7.94900	-1.42400
	101	1	1	 1.57500	10.31700	 5.98100	-0.00100
	102	1	6	 2.10000	11.08900	 4.45800	 2.68100
	103	1	6	 2.10000	11.16300	 7.40600	 2.68600
	104	1	5	-1.05000	10.89600	 4.50000	 1.06100
	105	1	5	-1.05000	11.31700	 7.24400	 1.06400
	106	1	4	-0.95000	13.88400	 6.21100	 0.99300
	107	1	3	-1.05000	12.54800	 7.97400	 3.29800
	108	1	3	-1.05000	10.87400	 5.95300	 3.29400
	109	1	3	-1.05000	 9.98900	 8.45400	 3.05600
	110	1	2	 0.42500	13.49200	 5.50000	 1.42400
	111	1	1	 1.57500	10.32200	 2.98500	 0.00100
	112	1	6	 2.10000	14.71200	 4.50800	-2.68100
	113	1	6	 2.10000	14.63700	 1.56000	-2.68600
	114	1	5	-1.05000	14.90500	 4.46600	-1.06100
	115	1	5	-1.05000	14.48200	 1.72100	-1.06400
	116	1	4	-0.95000	11.91600	 2.75500	-0.99300
	117	1	3	-1.05000	13.25200	 0.99200	-3.29800
	118	1	3	-1.05000	14.92700	 3.01200	-3.29400
	119	1	3	-1.05000	10.65100	 0.51200	-3.05600
	120	1	2	 0.42500	12.30800	 3.46600	-1.42400
	121	1	1	 1.57500	18.05800	 1.49800	-0.00100
	122	1	6	 2.10000	18.82900	-0.02500	 2.68100
	123	1	6	 2.10000	18.90300	 2.92300	 2.68600
	124	1	5	-1.05000	18.63600	 0.01700	 1.06100
	125	1	5	-1.05000	19.05800	 2.76200	 1.06400
	126	1	4	-0.95000	16.46400	 1.72800	 0.99300
	127	1	3	-1.05000	15.12800	 3.49100	 3.29800
	128	1	3	-1.05000	18.61400	 1.47100	 3.29400
	129	1	3	-1.05000	17.72900	 3.97100	 3.05600
	130	1	2	 0.42500	16.07200	 1.01700	 1.42400
	131	1	1	 1.57500	18.06200	 7.46800	 0.00100
	132	1	6	 2.10000	17.29100	 0.02500	-2.68100
	133	1	6	 2.10000	17.21700	 6.04300	-2.68600
	134	1	5	-1.05000	17.48400	-0.01700	-1.06100
	135	1	5	-1.05000	17.06200	 6.20400	-1.06400
	136	1	4	-0.95000	19.65600	 7.23800	-0.99300
	137	1	3	-1.05000	15.83200	 5.47400	-3.29800
	138	1	3	-1.05000	17.50700	 7.49500	-3.29400
	139	1	3	-1.05000	18.39100	 4.99500	-3.05600
	140	1	2	 0.42500	20.04800	 7.94900	-1.42400
	141	1	1	 1.57500	15.47700	 5.98100	-0.00100
	142	1	6	 2.10000	16.24900	 4.45800	 2.68100
	143	1	6	 2.10000	16.32300	 7.40600	 2.68600
	144	1	5	-1.05000	16.05600	 4.50000	 1.06100
	145	1	5	-1.05000	16.47700	 7.24400	 1.06400
	146	1	4	-0.95000	19.04400	 6.21100	 0.99300
	147	1	3	-1.05000	17.70800	 7.97400	 3.29800
	148	1	3	-1.05000	16.03400	 5.95300	 3.29400
	149	1	3	-1.05000	15.14900	 8.45400	 3.05600
	150	1	2	 0.42500	18.65200	 5.50000	 1.42400
	151	1	1	 1.57500	15.48200	 2.98500	 0.00100
	152	1	6	 2.10000	19.87200	 4.50800	-2.68100
	153	1	6	 2.10000	19.79700	 1.56000	-2.68600
	154	1	5	-1.05000	20.06500	 4.46600	-1.06100
	155	1	5	-1.05000	19.64200	 1.72100	-1.06400
	156	1	4	-0.95000	17.07600	 2.75500	-0.99300
	157	1	3	-1.05000	18.41200	 0.99200	-3.29800
	158	1	3	-1.05000	20.08700	 3.01200	-3.29400
	159	1	3	-1.05000	15.81100	 0.51200	-3.05600
	160	1	2	 0.42500	17.46800	 3.46600	-1.42400
	161	1	1	 1.57500	23.21800	 1.49800	-0.00100
	162	1	6	 2.10000	23.98900	-0.02500	 2.68100
	163	1	6	 2.10000	24.06300	 2.92300	 2.68600
	164	1	5	-1.05000	23.79600	 0.01700	 1.06100
	165	1	5	-1.05000	24.21800	 2.76200	 1.06400
	166	1	4	-0.95000	21.62400	 1.72800	 0.99300
	167	1	3	-1.05000	20.28800	 3.49100	 3.29800
	168	1	3	-1.05000	23.77400	 1.47100	 3.29400
	169	1	3	-1.05000	22.88900	 3.97100	 3.05600
	170	1	2	 0.42500	21.23200	 1.01700	 1.42400
	171	1	1	 1.57500	23.22200	 7.46800	 0.00100
	172	1	6	 2.10000	22.45100	 0.02500	-2.68100
	173	1	6	 2.10000	22.37700	 6.04300	-2.68600
	174	1	5	-1.05000	22.64400	-0.01700	-1.06100
	175	1	5	-1.05000	22.22200	 6.20400	-1.06400
	176	1	4	-0.95000	24.81600	 7.23800	-0.99300
	177	1	3	-1.05000	20.99200	 5.47400	-3.29800
	178	1	3	-1.05000	22.66700	 7.49500	-3.29400
	179	1	3	-1.05000	23.55100	 4.99500	-3.05600
	180	1	2	 0.42500	25.20800	 7.94900	-1.42400
	181	1	1	 1.57500	20.63700	 5.98100	-0.00100
	182	1	6	 2.10000	21.40900	 4.45800	 2.68100
	183	1	6	 2.10000	21.48300	 7.40600	 2.68600
	184	1	5	-1.05000	21.21600	 4.50000	 1.06100
	185	1	5	-1.05000	21.63700	 7.24400	 1.06400
	186	1	4	-0.95000	24.20400	 6.21100	 0.99300
	187	1	3	-1.05000	22.86800	 7.97400	 3.29800
	188	1	3	-1.05000	21.19400	 5.95300	 3.29400
	189	1	3	-1.05000	20.30900	 8.45400	 3.05600
	190	1	2	 0.42500	23.81200	 5.50000	 1.42400
	191	1	1	 1.57500	20.64200	 2.98500	 0.00100
	192	1	6	 2.10000	25.03200	 4.50800	-2.68100
	193	1	6	 2.10000	24.95700	 1.56000	-2.68600
	194	1	5	-1.05000	25.22500	 4.46600	-1.06100
	195	1	5	-1.05000	24.80200	 1.72100	-1.06400
	196	1	4	-0.95000	22.23600	 2.75500	-0.99300
	197	1	3	-1.05000	23.57200	 0.99200	-3.29800
	198	1	3	-1.05000	25.24700	 3.01200	-3.29400
	199	1	3	-1.05000	20.97100	 0.51200	-3.05600
	200	1	2	 0.42500	22.62800	 3.46600	-1.42400
	201	1	1	 1.57500	28.37800	 1.49800	-0.00100
	202	1	6	 2.10000	29.14900	-0.02500	 2.68100
	203	1	6	 2.10000	29.22300	 2.92300	 2.68600
	204	1	5	-1.05000	28.95600	 0.01700	 1.06100
	205	1	5	-1.05000	29.37800	 2.76200	 1.06400
	206	1	4	-0.95000	26.78400	 1.72800	 0.99300
	207	1	3	-1.05000	25.44800	 3.49100	 3.29800
	208	1	3	-1.05000	28.93400	 1.47100	 3.29400
	209	1	3	-1.05000	28.04900	 3.97100	 3.05600
	210	1	2	 0.42500	26.39200	 1.01700	 1.42400
	211	1	1	 1.57500	28.38200	 7.46800	 0.00100
	212	1	6	 2.10000	27.61100	 0.02500	-2.68100
	213	1	6	 2.10000	27.53700	 6.04300	-2.68600
	214	1	5	-1.05000	27.80400	-0.01700	-1.06100
	215	1	5	-1.05000	27.38200	 6.20400	-1.06400
	216	1	4	-0.95000	29.97600	 7.23800	-0.99300
	217	1	3	-1.05000	26.15200	 5.47400	-3.29800
	218	1	3	-1.05000	27.82700	 7.49500	-3.29400
	219	1	3	-1.05000	28.71100	 4.99500	-3.05600
	220	1	2	 0.42500	30.36800	 7.94900	-1.42400
	221	1	1	 1.57500	25.79700	 5.98100	-0.00100
	222	1	6	 2.10000	26.56900	 4.45800	 2.68100
	223	1	6	 2.10000	26.64300	 7.40600	 2.68600
	224	1	5	-1.05000	26.37600	 4.50000	 1.06100
	225	1	5	-1.05000	26.79700	 7.24400	 1.06400
	226	1	4	-0.95000	29.36400	 6.21100	 0.99300
	227	1	3	-1.05000	28.02800	 7.97400	 3.29800
	228	1	3	-1.05000	26.35400	 5.95300	 3.29400
	229	1	3	-1.05000	25.46900	 8.45400	 3.05600
	230	1	2	 0.42500	28.97200	 5.50000	 1.42400
	231	1	1	 1.57500	25.80200	 2.98500	 0.00100
	232	1	6	 2.10000	30.19200	 4.50800	-2.68100
	233	1	6	 2.10000	30.11700	 1.56000	-2.68600
	234	1	5	-1.05000	30.38500	 4.46600	-1.06100
	235	1	5	-1.05000	29.96200	 1.72100	-1.06400
	236	1	4	-0.95000	27.39600	 2.75500	-0.99300
	237	1	3	-1.05000	28.73200	 0.99200	-3.29800
	238	1	3	-1.05000	30.40700	 3.01200	-3.29400
	239	1	3	-1.05000	26.13100	 0.51200	-3.05600
	240	1	2	 0.42500	27.78800	 3.46600	-1.42400
	241	1	1	 1.57500	 2.57800	10.46380	-0.00100
	242	1	6	 2.10000	 3.34900	 8.94080	 2.68100
	243	1	6	 2.10000	 3.42300	11.88880	 2.68600
	244	1	5	-1.05000	 3.15600	 8.98280	 1.06100
	245	1	5	-1.05000	 3.57800	11.72780	 1.06400
	246	1	4	-0.95000	 0.98400	10.69380	 0.99300
	247	1	3	-1.05000	-0.35200	12.45680	 3.29800
	248	1	3	-1.05000	 3.13400	10.43680	 3.29400
	249	1	3	-1.05000	 2.24900	12.93680	 3.05600
	250	1	2	 0.42500	 0.59200	 9.98280	 1.42400
	251	1	1	 1.57500	 2.58200	16.43380	 0.00100
	252	1	6	 2.10000	 1.81100	 8.99080	-2.68100
	253	1	6	 2.10000	 1.73700	15.00880	-2.68600
	254	1	5	-1.05000	 2.00400	 8.94880	-1.06100
	255	1	5	-1.05000	 1.58200	15.16980	-1.06400
	256	1	4	-0.95000	 4.17600	16.20380	-0.99300
	257	1	3	-1.05000	 0.35200	14.43980	-3.29800
	258	1	3	-1.05000	 2.02700	16.46080	-3.29400
	259	1	3	-1.05000	 2.91100	13.96080	-3.05600
	260	1	2	 0.42500	 4.56800	16.91480	-1.42400
	261	1	1	 1.57500	-0.00300	14.94680	-0.00100
	262	1	6	 2.10000	 0.76900	13.42380	 2.68100
	263	1	6	 2.10000	 0.84300	16.37180	 2.68600
	264	1	5	-1.05000	 0.57600	13.46580	 1.06100
	265	1	5	-1.05000	 0.99700	16.20980	 1.06400
	266	1	4	-0.95000	 3.56400	15.17680	 0.99300
	267	1	3	-1.05000	 2.22800	16.93980	 3.29800
	268	1	3	-1.05000	 0.55400	14.91880	 3.29400
	269	1	3	-1.05000	-0.33100	17.41980	 3.05600
	270	1	2	 0.42500	 3.17200	14.46580	 1.42400
	271	1	1	 1.57500	 0.00200	11.95080	 0.00100
	272	1	6	 2.10000	 4.39200	13.47380	-2.68100
	273	1	6	 2.10000	 4.31700	10.52580	-2.68600
	274	1	5	-1.05000	 4.58500	13.43180	-1.06100
	275	1	5	-1.05000	 4.16200	10.68680	-1.06400
	276	1	4	-0.95000	 1.59600	11.72080	-0.99300
	277	1	3	-1.05000	 2.93200	 9.95780	-3.29800
	278	1	3	-1.05000	 4.60700	11.97780	-3.29400
	279	1	3	-1.05000	 0.33100	 9.47780	-3.05600
	280	1	2	 0.42500	 1.98800	12.43180	-1.42400
	281	1	1	 1.57500	 7.73800	10.46380	-0.00100
	282	1	6	 2.10000	 8.50900	 8.94080	 2.68100
	283	1	6	 2.10000	 8.58300	11.88880	 2.68600
	284	1	5	-1.05000	 8.31600	 8.98280	 1.06100
	285	1	5	-1.05000	 8.73800	11.72780	 1.06400
	286	1	4	-0.95000	 6.14400	10.69380	 0.99300
	287	1	3	-1.05000	 4.80800	12.45680	 3.29800
	288	1	3	-1.05000	 8.29400	10.43680	 3.29400
	289	1	3	-1.05000	 7.40900	12.93680	 3.05600
	290	1	2	 0.42500	 5.75200	 9.98280	 1.42400
	291	1	1	 1.57500	 7.74200	16.43380	 0.00100
	292	1	6	 2.10000	 6.97100	 8.99080	-2.68100
	293	1	6	 2.10000	 6.89700	15.00880	-2.68600
	294	1	5	-1.05000	 7.16400	 8.94880	-1.06100
	295	1	5	-1.05000	 6.74200	15.16980	-1.06400
	296	1	4	-0.95000	 9.33600	16.20380	-0.99300
	297	1	3	-1.05000	 5.51200	14.43980	-3.29800
	298	1	3	-1.05000	 7.18700	16.46080	-3.29400
	299	1	3	-1.05000	 8.07100	13.96080	-3.05600
	300	1	2	 0.42500	 9.72800	16.91480	-1.42400
	301	1	1	 1.57500	 5.15700	14.94680	-0.00100
	302	1	6	 2.10000	 5.92900	13.42380	 2.68100
	303	1	6	 2.10000	 6.00300	16.37180	 2.68600
	304	1	5	-1.05000	 5.73600	13.46580	 1.06100
	305	1	5	-1.05000	 6.15700	16.20980	 1.06400
	306	1	4	-0.95000	 8.72400	15.17680	 0.99300
	307	1	3	-1.05000	 7.38800	16.93980	 3.29800
	308	1	3	-1.05000	 5.71400	14.91880	 3.29400
	309	1	3	-1.05000	 4.82900	17.41980	 3.05600
	310	1	2	 0.42500	 8.33200	14.46580	 1.42400
	311	1	1	 1.57500	 5.16200	11.95080	 0.00100
	312	1	6	 2.10000	 9.55200	13.47380	-2.68100
	313	1	6	 2.10000	 9.47700	10.52580	-2.68600
	314	1	5	-1.05000	 9.74500	13.43180	-1.06100
	315	1	5	-1.05000	 9.32200	10.68680	-1.06400
	316	1	4	-0.95000	 6.75600	11.72080	-0.99300
	317	1	3	-1.05000	 8.09200	 9.95780	-3.29800
	318	1	3	-1.05000	 9.76700	11.97780	-3.29400
	319	1	3	-1.05000	 5.49100	 9.47780	-3.05600
	320	1	2	 0.42500	 7.14800	12.43180	-1.42400
	321	1	1	 1.57500	12.89800	10.46380	-0.00100
	322	1	6	 2.10000	13.66900	 8.94080	 2.68100
	323	1	6	 2.10000	13.74300	11.88880	 2.68600
	324	1	5	-1.05000	13.47600	 8.98280	 1.06100
	325	1	5	-1.05000	13.89800	11.72780	 1.06400
	326	1	4	-0.95000	11.30400	10.69380	 0.99300
	327	1	3	-1.05000	 9.96800	12.45680	 3.29800
	328	1	3	-1.05000	13.45400	10.43680	 3.29400
	329	1	3	-1.05000	12.56900	12.93680	 3.05600
	330	1	2	 0.42500	10.91200	 9.98280	 1.42400
	331	1	1	 1.57500	12.90200	16.43380	 0.00100
	332	1	6	 2.10000	12.13100	 8.99080	-2.68100
	333	1	6	 2.10000	12.05700	15.00880	-2.68600
	334	1	5	-1.05000	12.32400	 8.94880	-1.06100
	335	1	5	-1.05000	11.90200	15.16980	-1.06400
	336	1	4	-0.95000	14.49600	16.20380	-0.99300
	337	1	3	-1.05000	10.67200	14.43980	-3.29800
	338	1	3	-1.05000	12.34700	16.46080	-3.29400
	339	1	3	-1.05000	13.23100	13.96080	-3.05600
	340	1	2	 0.42500	14.88800	16.91480	-1.42400
	341	1	1	 1.57500	10.31700	14.94680	-0.00100
	342	1	6	 2.10000	11.08900	13.42380	 2.68100
	343	1	6	 2.10000	11.16300	16.37180	 2.68600
	344	1	5	-1.05000	10.89600	13.46580	 1.06100
	345	1	5	-1.05000	11.31700	16.20980	 1.06400
	346	1	4	-0.95000	13.88400	15.17680	 0.99300
	347	1	3	-1.05000	12.54800	16.93980	 3.29800
	348	1	3	-1.05000	10.87400	14.91880	 3.29400
	349	1	3	-1.05000	 9.98900	17.41980	 3.05600
	350	1	2	 0.42500	13.49200	14.46580	 1.42400
	351	1	1	 1.57500	10.32200	11.95080	 0.00100
	352	1	6	 2.10000	14.71200	13.47380	-2.68100
	353	1	6	 2.10000	14.63700	10.52580	-2.68600
	354	1	5	-1.05000	14.90500	13.43180	-1.06100
	355	1	5	-1.05000	14.48200	10.68680	-1.06400
	356	1	4	-0.95000	11.91600	11.72080	-0.99300
	357	1	3	-1.05000	13.25200	 9.95780	-3.29800
	358	1	3	-1.05000	14.92700	11.97780	-3.29400
	359	1	3	-1.05000	10.65100	 9.47780	-3.05600
	360	1	2	 0.42500	12.30800	12.43180	-1.42400
	361	1	1	 1.57500	18.05800	10.46380	-0.00100
	362	1	6	 2.10000	18.82900	 8.94080	 2.68100
	363	1	6	 2.10000	18.90300	11.88880	 2.68600
	364	1	5	-1.05000	18.63600	 8.98280	 1.06100
	365	1	5	-1.05000	19.05800	11.72780	 1.06400
	366	1	4	-0.95000	16.46400	10.69380	 0.99300
	367	1	3	-1.05000	15.12800	12.45680	 3.29800
	368	1	3	-1.05000	18.61400	10.43680	 3.29400
	369	1	3	-1.05000	17.72900	12.93680	 3.05600
	370	1	2	 0.42500	16.07200	 9.98280	 1.42400
	371	1	1	 1.57500	18.06200	16.43380	 0.00100
	372	1	6	 2.10000	17.29100	 8.99080	-2.68100
	373	1	6	 2.10000	17.21700	15.00880	-2.68600
	374	1	5	-1.05000	17.48400	 8.94880	-1.06100
	375	1	5	-1.05000	17.06200	15.16980	-1.06400
	376	1	4	-0.95000	19.65600	16.20380	-0.99300
	377	1	3	-1.05000	15.83200	14.43980	-3.29800
	378	1	3	-1.05000	17.50700	16.46080	-3.29400
	379	1	3	-1.05000	18.39100	13.96080	-3.05600
	380	1	2	 0.42500	20.04800	16.91480	-1.42400
	381	1	1	 1.57500	15.47700	14.94680	-0.00100
	382	1	6	 2.10000	16.24900	13.42380	 2.68100
	383	1	6	 2.10000	16.32300	16.37180	 2.68600
	384	1	5	-1.05000	16.05600	13.46580	 1.06100
	385	1	5	-1.05000	16.47700	16.20980	 1.06400
	386	1	4	-0.95000	19.04400	15.17680	 0.99300
	387	1	3	-1.05000	17.70800	16.93980	 3.29800
	388	1	3	-1.05000	16.03400	14.91880	 3.29400
	389	1	3	-1.05000	15.14900	17.41980	 3.05600
	390	1	2	 0.42500	18.65200	14.46580	 1.42400
	391	1	1	 1.57500	15.48200	11.95080	 0.00100
	392	1	6	 2.10000	19.87200	13.47380	-2.68100
	393	1	6	 2.10000	19.79700	10.52580	-2.68600
	394	1	5	-1.05000	20.06500	13.43180	-1.06100
	395	1	5	-1.05000	19.64200	10.68680	-1.06400
	396	1	4	-0.95000	17.07600	11.72080	-0.99300
	397	1	3	-1.05000	18.41200	 9.95780	-3.29800
	398	1	3	-1.05000	20.08700	11.97780	-3.29400
	399	1	3	-1.05000	15.81100	 9.47780	-3.05600
	400	1	2	 0.42500	17.46800	12.43180	-1.42400
	401	1	1	 1.57500	23.21800	10.46380	-0.00100
	402	1	6	 2.10000	23.98900	 8.94080	 2.68100
	403	1	6	 2.10000	24.06300	11.88880	 2.68600
	404	1	5	-1.05000	23.79600	 8.98280	 1.06100
	405	1	5	-1.05000	24.21800	11.72780	 1.06400
	406	1	4	-0.95000	21.62400	10.69380	 0.99300
	407	1	3	-1.05000	20.28800	12.45680	 3.29800
	408	1	3	-1.05000	23.77400	10.43680	 3.29400
	409	1	3	-1.05000	22.88900	12.93680	 3.05600
	410	1	2	 0.42500	21.23200	 9.98280	 1.42400
	411	1	1	 1.57500	23.22200	16.43380	 0.00100
	412	1	6	 2.10000	22.45100	 8.99080	-2.68100
	413	1	6	 2.10000	22.37700	15.00880	-2.68600
	414	1	5	-1.05000	22.64400	 8.94880	-1.06100
	415	1	5	-1.05000	22.22200	15.16980	-1.06400
	416	1	4	-0.95000	24.81600	16.20380	-0.99300
	417	1	3	-1.05000	20.99200	14.43980	-3.29800
	418	1	3	-1.05000	22.66700	16.46080	-3.29400
	419	1	3	-1.05000	23.55100	13.96080	-3.05600
	420	1	2	 0.42500	25.20800	16.91480	-1.42400
	421	1	1	 1.57500	20.63700	14.94680	-0.00100
	422	1	6	 2.10000	21.40900	13.42380	 2.68100
	423	1	6	 2.10000	21.48300	16.37180	 2.68600
	424	1	5	-1.05000	21.21600	13.46580	 1.06100
	425	1	5	-1.05000	21.63700	16.20980	 1.06400
	426	1	4	-0.95000	24.20400	15.17680	 0.99300
	427	1	3	-1.05000	22.86800	16.93980	 3.29800
	428	1	3	-1.05000	21.19400	14.91880	 3.29400
	429	1	3	-1.05000	20.30900	17.41980	 3.05600
	430	1	2	 0.42500	23.81200	14.46580	 1.42400
	431	1	1	 1.57500	20.64200	11.95080	 0.00100
	432	1	6	 2.10000	25.03200	13.47380	-2.68100
	433	1	6	 2.10000	24.95700	10.52580	-2.68600
	434	1	5	-1.05000	25.22500	13.43180	-1.06100
	435	1	5	-1.05000	24.80200	10.68680	-1.06400
	436	1	4	-0.95000	22.23600	11.72080	-0.99300
	437	1	3	-1.05000	23.57200	 9.95780	-3.29800
	438	1	3	-1.05000	25.24700	11.97780	-3.29400
	439	1	3	-1.05000	20.97100	 9.47780	-3.05600
	440	1	2	 0.42500	22.62800	12.43180	-1.42400
	441	1	1	 1.57500	28.37800	10.46380	-0.00100
	442	1	6	 2.10000	29.14900	 8.94080	 2.68100
	443	1	6	 2.10000	29.22300	11.88880	 2.68600
	444	1	5	-1.05000	28.95600	 8.98280	 1.06100
	445	1	5	-1.05000	29.37800	11.72780	 1.06400
	446	1	4	-0.95000	26.78400	10.69380	 0.99300
	447	1	3	-1.05000	25.44800	12.45680	 3.29800
	448	1	3	-1.05000	28.93400	10.43680	 3.29400
	449	1	3	-1.05000	28.04900	12.93680	 3.05600
	450	1	2	 0.42500	26.39200	 9.98280	 1.42400
	451	1	1	 1.57500	28.38200	16.43380	 0.00100
	452	1	6	 2.10000	27.61100	 8.99080	-2.68100
	453	1	6	 2.10000	27.53700	15.00880	-2.68600
	454	1	5	-1.05000	27.80400	 8.94880	-1.06100
	455	1	5	-1.05000	27.38200	15.16980	-1.06400
	456	1	4	-0.95000	29.97600	16.20380	-0.99300
	457	1	3	-1.05000	26.15200	14.43980	-3.29800
	458	1	3	-1.05000	27.82700	16.46080	-3.29400
	459	1	3	-1.05000	28.71100	13.96080	-3.05600
	460	1	2	 0.42500	30.36800	16.91480	-1.42400
	461	1	1	 1.57500	25.79700	14.94680	-0.00100
	462	1	6	 2.10000	26.56900	13.42380	 2.68100
	463	1	6	 2.10000	26.64300	16.37180	 2.68600
	464	1	5	-1.05000	26.37600	13.46580	 1.06100
	465	1	5	-1.05000	26.79700	16.20980	 1.06400
	466	1	4	-0.95000	29.36400	15.17680	 0.99300
	467	1	3	-1.05000	28.02800	16.93980	 3.29800
	468	1	3	-1.05000	26.35400	14.91880	 3.29400
	469	1	3	-1.05000	25.46900	17.41980	 3.05600
	470	1	2	 0.42500	28.97200	14.46580	 1.42400
	471	1	1	 1.57500	25.80200	11.95080	 0.00100
	472	1	6	 2.10000	30.19200	13.47380	-2.68100
	473	1	6	 2.10000	30.11700	10.52580	-2.68600
	474	1	5	-1.05000	30.38500	13.43180	-1.06100
	475	1	5	-1.05000	29.96200	10.68680	-1.06400
	476	1	4	-0.95000	27.39600	11.72080	-0.99300
	477	1	3	-1.05000	28.73200	 9.95780	-3.29800
	478	1	3	-1.05000	30.40700	11.97780	-3.29400
	479	1	3	-1.05000	26.13100	 9.47780	-3.05600
	480	1	2	 0.42500	27.78800	12.43180	-1.42400
	481	1	1	 1.57500	 2.57800	19.42960	-0.00100
	482	1	6	 2.10000	 3.34900	17.90660	 2.68100
	483	1	6	 2.10000	 3.42300	20.85460	 2.68600
	484	1	5	-1.05000	 3.15600	17.94860	 1.06100
	485	1	5	-1.05000	 3.57800	20.69360	 1.06400
	486	1	4	-0.95000	 0.98400	19.65960	 0.99300
	487	1	3	-1.05000	-0.35200	21.42260	 3.29800
	488	1	3	-1.05000	 3.13400	19.40260	 3.29400
	489	1	3	-1.05000	 2.24900	21.90260	 3.05600
	490	1	2	 0.42500	 0.59200	18.94860	 1.42400
	491	1	1	 1.57500	 2.58200	25.39960	 0.00100
	492	1	6	 2.10000	 1.81100	17.95660	-2.68100
	493	1	6	 2.10000	 1.73700	23.97460	-2.68600
	494	1	5	-1.05000	 2.00400	17.91460	-1.06100
	495	1	5	-1.05000	 1.58200	24.13560	-1.06400
	496	1	4	-0.95000	 4.17600	25.16960	-0.99300
	497	1	3	-1.05000	 0.35200	23.40560	-3.29800
	498	1	3	-1.05000	 2.02700	25.42660	-3.29400
	499	1	3	-1.05000	 2.91100	22.92660	-3.05600
	500	1	2	 0.42500	 4.56800	25.88060	-1.42400
	501	1	1	 1.57500	-0.00300	23.91260	-0.00100
	502	1	6	 2.10000	 0.76900	22.38960	 2.68100
	503	1	6	 2.10000	 0.84300	25.33760	 2.68600
	504	1	5	-1.05000	 0.57600	22.43160	 1.06100
	505	1	5	-1.05000	 0.99700	25.17560	 1.06400
	506	1	4	-0.95000	 3.56400	24.14260	 0.99300
	507	1	3	-1.05000	 2.22800	25.90560	 3.29800
	508	1	3	-1.05000	 0.55400	23.88460	 3.29400
	509	1	3	-1.05000	-0.33100	26.38560	 3.05600
	510	1	2	 0.42500	 3.17200	23.43160	 1.42400
	511	1	1	 1.57500	 0.00200	20.91660	 0.00100
	512	1	6	 2.10000	 4.39200	22.43960	-2.68100
	513	1	6	 2.10000	 4.31700	19.49160	-2.68600
	514	1	5	-1.05000	 4.58500	22.39760	-1.06100
	515	1	5	-1.05000	 4.16200	19.65260	-1.06400
	516	1	4	-0.95000	 1.59600	20.68660	-0.99300
	517	1	3	-1.05000	 2.93200	18.92360	-3.29800
	518	1	3	-1.05000	 4.60700	20.94360	-3.29400
	519	1	3	-1.05000	 0.33100	18.44360	-3.05600
	520	1	2	 0.42500	 1.98800	21.39760	-1.42400
	521	1	1	 1.57500	 7.73800	19.42960	-0.00100
	522	1	6	 2.10000	 8.50900	17.90660	 2.68100
	523	1	6	 2.10000	 8.58300	20.85460	 2.68600
	524	1	5	-1.05000	 8.31600	17.94860	 1.06100
	525	1	5	-1.05000	 8.73800	20.69360	 1.06400
	526	1	4	-0.95000	 6.14400	19.65960	 0.99300
	527	1	3	-1.05000	 4.80800	21.42260	 3.29800
	528	1	3	-1.05000	 8.29400	19.40260	 3.29400
	529	1	3	-1.05000	 7.40900	21.90260	 3.05600
	530	1	2	 0.42500	 5.75200	18.94860	 1.42400
	531	1	1	 1.57500	 7.74200	25.39960	 0.00100
	532	1	6	 2.10000	 6.97100	17.95660	-2.68100
	533	1	6	 2.10000	 6.89700	23.97460	-2.68600
	534	1	5	-1.05000	 7.16400	17.91460	-1.06100
	535	1	5	-1.05000	 6.74200	24.13560	-1.06400
	536	1	4	-0.95000	 9.33600	25.16960	-0.99300
	537	1	3	-1.05000	 5.51200	23.40560	-3.29800
	538	1	3	-1.05000	 7.18700	25.42660	-3.29400
	539	1	3	-1.05000	 8.07100	22.92660	-3.05600
	540	1	2	 0.42500	 9.72800	25.88060	-1.42400
	541	1	1	 1.57500	 5.15700	23.91260	-0.00100
	542	1	6	 2.10000	 5.92900	22.38960	 2.68100
	543	1	6	 2.10000	 6.00300	25.33760	 2.68600
	544	1	5	-1.05000	 5.73600	22.43160	 1.06100
	545	1	5	-1.05000	 6.15700	25.17560	 1.06400
	546	1	4	-0.95000	 8.72400	24.14260	 0.99300
	547	1	3	-1.05000	 7.38800	25.90560	 3.29800
	548	1	3	-1.05000	 5.71400	23.88460	 3.29400
	549	1	3	-1.05000	 4.82900	26.38560	 3.05600
	550	1	2	 0.42500	 8.33200	23.43160	 1.42400
	551	1	1	 1.57500	 5.16200	20.91660	 0.00100
	552	1	6	 2.10000	 9.55200	22.43960	-2.68100
	553	1	6	 2.10000	 9.47700	19.49160	-2.68600
	554	1	5	-1.05000	 9.74500	22.39760	-1.06100
	555	1	5	-1.05000	 9.32200	19.65260	-1.06400
	556	1	4	-0.95000	 6.75600	20.68660	-0.99300
	557	1	3	-1.05000	 8.09200	18.92360	-3.29800
	558	1	3	-1.05000	 9.76700	20.94360	-3.29400
	559	1	3	-1.05000	 5.49100	18.44360	-3.05600
	560	1	2	 0.42500	 7.14800	21.39760	-1.42400
	561	1	1	 1.57500	12.89800	19.42960	-0.00100
	562	1	6	 2.10000	13.66900	17.90660	 2.68100
	563	1	6	 2.10000	13.74300	20.85460	 2.68600
	564	1	5	-1.05000	13.47600	17.94860	 1.06100
	565	1	5	-1.05000	13.89800	20.69360	 1.06400
	566	1	4	-0.95000	11.30400	19.65960	 0.99300
	567	1	3	-1.05000	 9.96800	21.42260	 3.29800
	568	1	3	-1.05000	13.45400	19.40260	 3.29400
	569	1	3	-1.05000	12.56900	21.90260	 3.05600
	570	1	2	 0.42500	10.91200	18.94860	 1.42400
	571	1	1	 1.57500	12.90200	25.39960	 0.00100
	572	1	6	 2.10000	12.13100	17.95660	-2.68100
	573	1	6	 2.10000	12.05700	23.97460	-2.68600
	574	1	5	-1.05000	12.32400	17.91460	-1.06100
	575	1	5	-1.05000	11.90200	24.13560	-1.06400
	576	1	4	-0.95000	14.49600	25.16960	-0.99300
	577	1	3	-1.05000	10.67200	23.40560	-3.29800
	578	1	3	-1.05000	12.34700	25.42660	-3.29400
	579	1	3	-1.05000	13.23100	22.92660	-3.05600
	580	1	2	 0.42500	14.88800	25.88060	-1.42400
	581	1	1	 1.57500	10.31700	23.91260	-0.00100
	582	1	6	 2.10000	11.08900	22.38960	 2.68100
	583	1	6	 2.10000	11.16300	25.33760	 2.68600
	584	1	5	-1.05000	10.89600	22.43160	 1.06100
	585	1	5	-1.05000	11.31700	25.17560	 1.06400
	586	1	4	-0.95000	13.88400	24.14260	 0.99300
	587	1	3	-1.05000	12.54800	25.90560	 3.29800
	588	1	3	-1.05000	10.87400	23.88460	 3.29400
	589	1	3	-1.05000	 9.98900	26.38560	 3.05600
	590	1	2	 0.42500	13.49200	23.43160	 1.42400
	591	1	1	 1.57500	10.32200	20.91660	 0.00100
	592	1	6	 2.10000	14.71200	22.43960	-2.68100
	593	1	6	 2.10000	14.63700	19.49160	-2.68600
	594	1	5	-1.05000	14.90500	22.39760	-1.06100
	595	1	5	-1.05000	14.48200	19.65260	-1.06400
	596	1	4	-0.95000	11.91600	20.68660	-0.99300
	597	1	3	-1.05000	13.25200	18.92360	-3.29800
	598	1	3	-1.05000	14.92700	20.94360	-3.29400
	599	1	3	-1.05000	10.65100	18.44360	-3.05600
	600	1	2	 0.42500	12.30800	21.39760	-1.42400
	601	1	1	 1.57500	18.05800	19.42960	-0.00100
	602	1	6	 2.10000	18.82900	17.90660	 2.68100
	603	1	6	 2.10000	18.90300	20.85460	 2.68600
	604	1	5	-1.05000	18.63600	17.94860	 1.06100
	605	1	5	-1.05000	19.05800	20.69360	 1.06400
	606	1	4	-0.95000	16.46400	19.65960	 0.99300
	607	1	3	-1.05000	15.12800	21.42260	 3.29800
	608	1	3	-1.05000	18.61400	19.40260	 3.29400
	609	1	3	-1.05000	17.72900	21.90260	 3.05600
	610	1	2	 0.42500	16.07200	18.94860	 1.42400
	611	1	1	 1.57500	18.06200	25.39960	 0.00100
	612	1	6	 2.10000	17.29100	17.95660	-2.68100
	613	1	6	 2.10000	17.21700	23.97460	-2.68600
	614	1	5	-1.05000	17.48400	17.91460	-1.06100
	615	1	5	-1.05000	17.06200	24.13560	-1.06400
	616	1	4	-0.95000	19.65600	25.16960	-0.99300
	617	1	3	-1.05000	15.83200	23.40560	-3.29800
	618	1	3	-1.05000	17.50700	25.42660	-3.29400
	619	1	3	-1.05000	18.39100	22.92660	-3.05600
	620	1	2	 0.42500	20.04800	25.88060	-1.42400
	621	1	1	 1.57500	15.47700	23.91260	-0.00100
	622	1	6	 2.10000	16.24900	22.38960	 2.68100
	623	1	6	 2.10000	16.32300	25.33760	 2.68600
	624	1	5	-1.05000	16.05600	22.43160	 1.06100
	625	1	5	-1.05000	16.47700	25.17560	 1.06400
	626	1	4	-0.95000	19.04400	24.14260	 0.99300
	627	1	3	-1.05000	17.70800	25.90560	 3.29800
	628	1	3	-1.05000	16.03400	23.88460	 3.29400
	629	1	3	-1.05000	15.14900	26.38560	 3.05600
	630	1	2	 0.42500	18.65200	23.43160	 1.42400
	631	1	1	 1.57500	15.48200	20.91660	 0.00100
	632	1	6	 2.10000	19.87200	22.43960	-2.68100
	633	1	6	 2.10000	19.79700	19.49160	-2.68600
	634	1	5	-1.05000	20.06500	22.39760	-1.06100
	635	1	5	-1.05000	19.64200	19.65260	-1.06400
	636	1	4	-0.95000	17.07600	20.68660	-0.99300
	637	1	3	-1.05000	18.41200	18.92360	-3.29800
	638	1	3	-1.05000	20.08700	20.94360	-3.29400
	639	1	3	-1.05000	15.81100	18.44360	-3.05600
	640	1	2	 0.42500	17.46800	21.39760	-1.42400
	641	1	1	 1.57500	23.21800	19.42960	-0.00100
	642	1	6	 2.10000	23.98900	17.90660	 2.68100