LAMMPS input data file #25-Mar-2019 22:40:41

3976 atoms
2096 bonds
1000 angles
   
11 atom types
2 bond types
1 angle types

0 30.96 xlo xhi
0 35.8632 ylo yhi
0 40 zlo zhi
       

Masses 

1 26.9815 # Hw
2 28.0855 # Na
3 28.0855 # Ow
4 15.9994 # ao
5 15.9994 # ho
6 15.9994 # mgo
7 15.9994 # ob
8 15.9994 # obos
9 15.9994 # oh
10 26.9815 # ohs
11 28.0855 # st

Pair Coeffs 

1 0.000000E+00 0.000000 # Hw
2 0.000000E+00 0.000000 # Na
3 1.529199E-02 2.159538 # Ow
4 6.738778E-03 3.165541 # ao
5 5.766555E-08 4.271236 # ho
6 0.000000E+00 0.000000 # mgo
7 3.915690E-08 5.264321 # ob
8 6.738778E-03 3.165541 # obos
9 6.738778E-03 3.165541 # oh
10 6.738778E-03 3.165541 # ohs
11 6.738778E-03 3.165541 # st

Atoms 

	1	1	4	 1.57500	 2.57782	 1.49800	-0.00100
	2	1	11	 2.10000	 3.84396	-0.02500	 2.68100
	3	1	11	 2.10000	 3.91888	 2.92300	 2.68600
	4	1	7	-1.05000	 3.35188	 0.01700	 1.06100
	5	1	7	-1.05000	 3.77443	 2.76200	 1.06400
	6	1	10	-1.08090	 1.16732	 1.72800	 0.99300
	7	1	7	-1.05000	 0.25687	 3.49100	 3.29800
	8	1	7	-1.05000	 3.74213	 1.47100	 3.29400
	9	1	7	-1.05000	 2.81319	 3.97100	 3.05600
	10	1	4	 1.57500	 2.58218	 7.46800	 0.00100
	11	1	11	 2.10000	 1.31604	 0.02500	-2.68100
	12	1	11	 2.10000	 1.24112	 6.04300	-2.68600
	13	1	7	-1.05000	 1.80812	-0.01700	-1.06100
	14	1	7	-1.05000	 1.38557	 6.20400	-1.06400
	15	1	10	-1.08090	 3.99268	 7.23800	-0.99300
	16	1	7	-1.05000	-0.25687	 5.47400	-3.29800
	17	1	7	-1.05000	 1.41887	 7.49500	-3.29400
	18	1	7	-1.05000	 2.34681	 4.99500	-3.05600
	19	1	4	 1.57500	-0.00318	 5.98100	-0.00100
	20	1	11	 2.10000	 1.26396	 4.45800	 2.68100
	21	1	11	 2.10000	 1.33888	 7.40600	 2.68600
	22	1	8	-1.18080	 0.77188	 4.50000	 1.06100
	23	1	7	-1.05000	 1.19343	 7.24400	 1.06400
	24	1	10	-1.08090	 3.74732	 6.21100	 0.99300
	25	1	7	-1.05000	 2.83687	 7.97400	 3.29800
	26	1	7	-1.05000	 1.16213	 5.95300	 3.29400
	27	1	7	-1.05000	 0.23319	 8.45400	 3.05600
	28	1	6	 1.36000	 0.00218	 2.98500	 0.00100
	29	1	11	 2.10000	 3.89704	 4.50800	-2.68100
	30	1	11	 2.10000	 3.82112	 1.56000	-2.68600
	31	1	8	-1.18080	 4.38912	 4.46600	-1.06100
	32	1	7	-1.05000	 3.96557	 1.72100	-1.06400
	33	1	10	-1.08090	 1.41268	 2.75500	-0.99300
	34	1	7	-1.05000	 2.32313	 0.99200	-3.29800
	35	1	7	-1.05000	 3.99887	 3.01200	-3.29400
	36	1	7	-1.05000	-0.23319	 0.51200	-3.05600
	37	1	5	 0.42500	 1.06601	 1.30392	 1.81308
	38	1	5	 0.42500	 4.09439	 7.66203	-1.81298
	39	1	5	 0.42500	 3.64641	 5.78687	 1.81317
	40	1	5	 0.42500	 1.51399	 3.17908	-1.81308
	41	1	4	 1.57500	 7.73782	 1.49800	-0.00100
	42	1	11	 2.10000	 9.00396	-0.02500	 2.68100
	43	1	11	 2.10000	 9.07888	 2.92300	 2.68600
	44	1	7	-1.05000	 8.51188	 0.01700	 1.06100
	45	1	7	-1.05000	 8.93443	 2.76200	 1.06400
	46	1	9	-0.95000	 6.32732	 1.72800	 0.99300
	47	1	7	-1.05000	 5.41687	 3.49100	 3.29800
	48	1	7	-1.05000	 8.90213	 1.47100	 3.29400
	49	1	7	-1.05000	 7.97319	 3.97100	 3.05600
	50	1	4	 1.57500	 7.74218	 7.46800	 0.00100
	51	1	11	 2.10000	 6.47604	 0.02500	-2.68100
	52	1	11	 2.10000	 6.40112	 6.04300	-2.68600
	53	1	7	-1.05000	 6.96812	-0.01700	-1.06100
	54	1	8	-1.18080	 6.54557	 6.20400	-1.06400
	55	1	9	-0.95000	 9.15268	 7.23800	-0.99300
	56	1	7	-1.05000	 4.90313	 5.47400	-3.29800
	57	1	7	-1.05000	 6.57887	 7.49500	-3.29400
	58	1	7	-1.05000	 7.50681	 4.99500	-3.05600
	59	1	6	 1.36000	 5.15682	 5.98100	-0.00100
	60	1	11	 2.10000	 6.42396	 4.45800	 2.68100
	61	1	11	 2.10000	 6.49888	 7.40600	 2.68600
	62	1	8	-1.18080	 5.93188	 4.50000	 1.06100
	63	1	8	-1.18080	 6.35343	 7.24400	 1.06400
	64	1	9	-0.95000	 8.90732	 6.21100	 0.99300
	65	1	7	-1.05000	 7.99687	 7.97400	 3.29800
	66	1	7	-1.05000	 6.32213	 5.95300	 3.29400
	67	1	7	-1.05000	 5.39319	 8.45400	 3.05600
	68	1	4	 1.57500	 5.16218	 2.98500	 0.00100
	69	1	11	 2.10000	 9.05704	 4.50800	-2.68100
	70	1	11	 2.10000	 8.98112	 1.56000	-2.68600
	71	1	7	-1.05000	 9.54912	 4.46600	-1.06100
	72	1	7	-1.05000	 9.12557	 1.72100	-1.06400
	73	1	9	-0.95000	 6.57268	 2.75500	-0.99300
	74	1	7	-1.05000	 7.48313	 0.99200	-3.29800
	75	1	7	-1.05000	 9.15887	 3.01200	-3.29400
	76	1	7	-1.05000	 4.92681	 0.51200	-3.05600
	77	1	5	 0.42500	 6.22601	 1.30392	 1.81308
	78	1	5	 0.42500	 9.25439	 7.66203	-1.81298
	79	1	5	 0.42500	 8.80641	 5.78687	 1.81317
	80	1	5	 0.42500	 6.67399	 3.17908	-1.81308
	81	1	4	 1.57500	12.89782	 1.49800	-0.00100
	82	1	11	 2.10000	14.16396	-0.02500	 2.68100
	83	1	11	 2.10000	14.23888	 2.92300	 2.68600
	84	1	7	-1.05000	13.67188	 0.01700	 1.06100
	85	1	8	-1.18080	14.09443	 2.76200	 1.06400
	86	1	9	-0.95000	11.48732	 1.72800	 0.99300
	87	1	7	-1.05000	10.57687	 3.49100	 3.29800
	88	1	7	-1.05000	14.06213	 1.47100	 3.29400
	89	1	7	-1.05000	13.13319	 3.97100	 3.05600
	90	1	4	 1.57500	12.90218	 7.46800	 0.00100
	91	1	11	 2.10000	11.63604	 0.02500	-2.68100
	92	1	11	 2.10000	11.56112	 6.04300	-2.68600
	93	1	7	-1.05000	12.12812	-0.01700	-1.06100
	94	1	7	-1.05000	11.70557	 6.20400	-1.06400
	95	1	9	-0.95000	14.31268	 7.23800	-0.99300
	96	1	7	-1.05000	10.06313	 5.47400	-3.29800
	97	1	7	-1.05000	11.73887	 7.49500	-3.29400
	98	1	7	-1.05000	12.66681	 4.99500	-3.05600
	99	1	4	 1.57500	10.31682	 5.98100	-0.00100
	100	1	11	 2.10000	11.58396	 4.45800	 2.68100
	101	1	11	 2.10000	11.65888	 7.40600	 2.68600
	102	1	7	-1.05000	11.09188	 4.50000	 1.06100
	103	1	7	-1.05000	11.51343	 7.24400	 1.06400
	104	1	9	-0.95000	14.06732	 6.21100	 0.99300
	105	1	7	-1.05000	13.15687	 7.97400	 3.29800
	106	1	7	-1.05000	11.48213	 5.95300	 3.29400
	107	1	7	-1.05000	10.55319	 8.45400	 3.05600
	108	1	4	 1.57500	10.32218	 2.98500	 0.00100
	109	1	11	 2.10000	14.21704	 4.50800	-2.68100
	110	1	11	 2.10000	14.14112	 1.56000	-2.68600
	111	1	8	-1.18080	14.70912	 4.46600	-1.06100
	112	1	8	-1.18080	14.28557	 1.72100	-1.06400
	113	1	9	-0.95000	11.73268	 2.75500	-0.99300
	114	1	7	-1.05000	12.64313	 0.99200	-3.29800
	115	1	7	-1.05000	14.31887	 3.01200	-3.29400
	116	1	7	-1.05000	10.08681	 0.51200	-3.05600
	117	1	5	 0.42500	11.38601	 1.30392	 1.81308
	118	1	5	 0.42500	14.41439	 7.66203	-1.81298
	119	1	5	 0.42500	13.96641	 5.78687	 1.81317
	120	1	5	 0.42500	11.83399	 3.17908	-1.81308
	121	1	4	 1.57500	18.05782	 1.49800	-0.00100
	122	1	11	 2.10000	19.32396	-0.02500	 2.68100
	123	1	11	 2.10000	19.39888	 2.92300	 2.68600
	124	1	7	-1.05000	18.83188	 0.01700	 1.06100
	125	1	7	-1.05000	19.25443	 2.76200	 1.06400
	126	1	10	-1.08090	16.64732	 1.72800	 0.99300
	127	1	7	-1.05000	15.73687	 3.49100	 3.29800
	128	1	7	-1.05000	19.22213	 1.47100	 3.29400
	129	1	7	-1.05000	18.29319	 3.97100	 3.05600
	130	1	4	 1.57500	18.06218	 7.46800	 0.00100
	131	1	11	 2.10000	16.79604	 0.02500	-2.68100
	132	1	11	 2.10000	16.72112	 6.04300	-2.68600
	133	1	7	-1.05000	17.28812	-0.01700	-1.06100
	134	1	7	-1.05000	16.86557	 6.20400	-1.06400
	135	1	9	-0.95000	19.47268	 7.23800	-0.99300
	136	1	7	-1.05000	15.22313	 5.47400	-3.29800
	137	1	7	-1.05000	16.89887	 7.49500	-3.29400
	138	1	7	-1.05000	17.82681	 4.99500	-3.05600
	139	1	4	 1.57500	15.47682	 5.98100	-0.00100
	140	1	11	 2.10000	16.74396	 4.45800	 2.68100
	141	1	11	 2.10000	16.81888	 7.40600	 2.68600
	142	1	8	-1.18080	16.25188	 4.50000	 1.06100
	143	1	7	-1.05000	16.67343	 7.24400	 1.06400
	144	1	9	-0.95000	19.22732	 6.21100	 0.99300
	145	1	7	-1.05000	18.31687	 7.97400	 3.29800
	146	1	7	-1.05000	16.64213	 5.95300	 3.29400
	147	1	7	-1.05000	15.71319	 8.45400	 3.05600
	148	1	6	 1.36000	15.48218	 2.98500	 0.00100
	149	1	11	 2.10000	19.37704	 4.50800	-2.68100
	150	1	11	 2.10000	19.30112	 1.56000	-2.68600
	151	1	7	-1.05000	19.86912	 4.46600	-1.06100
	152	1	7	-1.05000	19.44557	 1.72100	-1.06400
	153	1	10	-1.08090	16.89268	 2.75500	-0.99300
	154	1	7	-1.05000	17.80313	 0.99200	-3.29800
	155	1	7	-1.05000	19.47887	 3.01200	-3.29400
	156	1	7	-1.05000	15.24681	 0.51200	-3.05600
	157	1	5	 0.42500	16.54601	 1.30392	 1.81308
	158	1	5	 0.42500	19.57439	 7.66203	-1.81298
	159	1	5	 0.42500	19.12641	 5.78687	 1.81317
	160	1	5	 0.42500	16.99399	 3.17908	-1.81308
	161	1	4	 1.57500	23.21782	 1.49800	-0.00100
	162	1	11	 2.10000	24.48396	-0.02500	 2.68100
	163	1	11	 2.10000	24.55888	 2.92300	 2.68600
	164	1	7	-1.05000	23.99188	 0.01700	 1.06100
	165	1	7	-1.05000	24.41443	 2.76200	 1.06400
	166	1	9	-0.95000	21.80732	 1.72800	 0.99300
	167	1	7	-1.05000	20.89687	 3.49100	 3.29800
	168	1	7	-1.05000	24.38213	 1.47100	 3.29400
	169	1	7	-1.05000	23.45319	 3.97100	 3.05600
	170	1	6	 1.36000	23.22218	 7.46800	 0.00100
	171	1	11	 2.10000	21.95604	 0.02500	-2.68100
	172	1	11	 2.10000	21.88112	 6.04300	-2.68600
	173	1	7	-1.05000	22.44812	-0.01700	-1.06100
	174	1	8	-1.18080	22.02557	 6.20400	-1.06400
	175	1	10	-1.08090	24.63268	 7.23800	-0.99300
	176	1	7	-1.05000	20.38313	 5.47400	-3.29800
	177	1	7	-1.05000	22.05887	 7.49500	-3.29400
	178	1	7	-1.05000	22.98681	 4.99500	-3.05600
	179	1	4	 1.57500	20.63682	 5.98100	-0.00100
	180	1	11	 2.10000	21.90396	 4.45800	 2.68100
	181	1	11	 2.10000	21.97888	 7.40600	 2.68600
	182	1	7	-1.05000	21.41188	 4.50000	 1.06100
	183	1	8	-1.18080	21.83343	 7.24400	 1.06400
	184	1	10	-1.08090	24.38732	 6.21100	 0.99300
	185	1	7	-1.05000	23.47687	 7.97400	 3.29800
	186	1	7	-1.05000	21.80213	 5.95300	 3.29400
	187	1	7	-1.05000	20.87319	 8.45400	 3.05600
	188	1	4	 1.57500	20.64218	 2.98500	 0.00100
	189	1	11	 2.10000	24.53704	 4.50800	-2.68100
	190	1	11	 2.10000	24.46112	 1.56000	-2.68600
	191	1	7	-1.05000	25.02912	 4.46600	-1.06100
	192	1	7	-1.05000	24.60557	 1.72100	-1.06400
	193	1	9	-0.95000	22.05268	 2.75500	-0.99300
	194	1	7	-1.05000	22.96313	 0.99200	-3.29800
	195	1	7	-1.05000	24.63887	 3.01200	-3.29400
	196	1	7	-1.05000	20.40681	 0.51200	-3.05600
	197	1	5	 0.42500	21.70601	 1.30392	 1.81308
	198	1	5	 0.42500	24.73439	 7.66203	-1.81298
	199	1	5	 0.42500	24.28641	 5.78687	 1.81317
	200	1	5	 0.42500	22.15399	 3.17908	-1.81308
	201	1	4	 1.57500	28.37782	 1.49800	-0.00100
	202	1	11	 2.10000	29.64396	-0.02500	 2.68100
	203	1	11	 2.10000	29.71888	 2.92300	 2.68600
	204	1	7	-1.05000	29.15188	 0.01700	 1.06100
	205	1	8	-1.18080	29.57443	 2.76200	 1.06400
	206	1	9	-0.95000	26.96732	 1.72800	 0.99300
	207	1	7	-1.05000	26.05687	 3.49100	 3.29800
	208	1	7	-1.05000	29.54213	 1.47100	 3.29400
	209	1	7	-1.05000	28.61319	 3.97100	 3.05600
	210	1	4	 1.57500	28.38218	 7.46800	 0.00100
	211	1	11	 2.10000	27.11604	 0.02500	-2.68100
	212	1	11	 2.10000	27.04112	 6.04300	-2.68600
	213	1	7	-1.05000	27.60812	-0.01700	-1.06100
	214	1	7	-1.05000	27.18557	 6.20400	-1.06400
	215	1	9	-0.95000	29.79268	 7.23800	-0.99300
	216	1	7	-1.05000	25.54313	 5.47400	-3.29800
	217	1	7	-1.05000	27.21887	 7.49500	-3.29400
	218	1	7	-1.05000	28.14681	 4.99500	-3.05600
	219	1	4	 1.57500	25.79682	 5.98100	-0.00100
	220	1	11	 2.10000	27.06396	 4.45800	 2.68100
	221	1	11	 2.10000	27.13888	 7.40600	 2.68600
	222	1	7	-1.05000	26.57188	 4.50000	 1.06100
	223	1	7	-1.05000	26.99343	 7.24400	 1.06400
	224	1	9	-0.95000	29.54732	 6.21100	 0.99300
	225	1	7	-1.05000	28.63687	 7.97400	 3.29800
	226	1	7	-1.05000	26.96213	 5.95300	 3.29400
	227	1	7	-1.05000	26.03319	 8.45400	 3.05600
	228	1	4	 1.57500	25.80218	 2.98500	 0.00100
	229	1	11	 2.10000	29.69704	 4.50800	-2.68100
	230	1	11	 2.10000	29.62112	 1.56000	-2.68600
	231	1	8	-1.18080	30.18912	 4.46600	-1.06100
	232	1	8	-1.18080	29.76557	 1.72100	-1.06400
	233	1	9	-0.95000	27.21268	 2.75500	-0.99300
	234	1	7	-1.05000	28.12313	 0.99200	-3.29800
	235	1	7	-1.05000	29.79887	 3.01200	-3.29400
	236	1	7	-1.05000	25.56681	 0.51200	-3.05600
	237	1	5	 0.42500	26.86601	 1.30392	 1.81308
	238	1	5	 0.42500	29.89439	 7.66203	-1.81298
	239	1	5	 0.42500	29.44641	 5.78687	 1.81317
	240	1	5	 0.42500	27.31399	 3.17908	-1.81308
	241	1	4	 1.57500	 2.57782	10.46380	-0.00100
	242	1	11	 2.10000	 3.84396	 8.94080	 2.68100
	243	1	11	 2.10000	 3.91888	11.88880	 2.68600
	244	1	7	-1.05000	 3.35188	 8.98280	 1.06100
	245	1	7	-1.05000	 3.77443	11.72780	 1.06400
	246	1	10	-1.08090	 1.16732	10.69380	 0.99300
	247	1	7	-1.05000	 0.25687	12.45680	 3.29800
	248	1	7	-1.05000	 3.74213	10.43680	 3.29400
	249	1	7	-1.05000	 2.81319	12.93680	 3.05600
	250	1	4	 1.57500	 2.58218	16.43380	 0.00100
	251	1	11	 2.10000	 1.31604	 8.99080	-2.68100
	252	1	11	 2.10000	 1.24112	15.00880	-2.68600
	253	1	7	-1.05000	 1.80812	 8.94880	-1.06100
	254	1	7	-1.05000	 1.38557	15.16980	-1.06400
	255	1	9	-0.95000	 3.99268	16.20380	-0.99300
	256	1	7	-1.05000	-0.25687	14.43980	-3.29800
	257	1	7	-1.05000	 1.41887	16.46080	-3.29400
	258	1	7	-1.05000	 2.34681	13.96080	-3.05600
	259	1	4	 1.57500	-0.00318	14.94680	-0.00100
	260	1	11	 2.10000	 1.26396	13.42380	 2.68100
	261	1	11	 2.10000	 1.33888	16.37180	 2.68600
	262	1	8	-1.18080	 0.77188	13.46580	 1.06100
	263	1	7	-1.05000	 1.19343	16.20980	 1.06400
	264	1	9	-0.95000	 3.74732	15.17680	 0.99300
	265	1	7	-1.05000	 2.83687	16.93980	 3.29800
	266	1	7	-1.05000	 1.16213	14.91880	 3.29400
	267	1	7	-1.05000	 0.23319	17.41980	 3.05600
	268	1	6	 1.36000	 0.00218	11.95080	 0.00100
	269	1	11	 2.10000	 3.89704	13.47380	-2.68100
	270	1	11	 2.10000	 3.82112	10.52580	-2.68600
	271	1	7	-1.05000	 4.38912	13.43180	-1.06100
	272	1	7	-1.05000	 3.96557	10.68680	-1.06400
	273	1	10	-1.08090	 1.41268	11.72080	-0.99300
	274	1	7	-1.05000	 2.32313	 9.95780	-3.29800
	275	1	7	-1.05000	 3.99887	11.97780	-3.29400
	276	1	7	-1.05000	-0.23319	 9.47780	-3.05600
	277	1	5	 0.42500	 1.06601	10.26972	 1.81308
	278	1	5	 0.42500	 4.09439	16.62783	-1.81298
	279	1	5	 0.42500	 3.64641	14.75267	 1.81317
	280	1	5	 0.42500	 1.51399	12.14488	-1.81308
	281	1	4	 1.57500	 7.73782	10.46380	-0.00100
	282	1	11	 2.10000	 9.00396	 8.94080	 2.68100
	283	1	11	 2.10000	 9.07888	11.88880	 2.68600
	284	1	7	-1.05000	 8.51188	 8.98280	 1.06100
	285	1	7	-1.05000	 8.93443	11.72780	 1.06400
	286	1	9	-0.95000	 6.32732	10.69380	 0.99300
	287	1	7	-1.05000	 5.41687	12.45680	 3.29800
	288	1	7	-1.05000	 8.90213	10.43680	 3.29400
	289	1	7	-1.05000	 7.97319	12.93680	 3.05600
	290	1	4	 1.57500	 7.74218	16.43380	 0.00100
	291	1	11	 2.10000	 6.47604	 8.99080	-2.68100
	292	1	11	 2.10000	 6.40112	15.00880	-2.68600
	293	1	7	-1.05000	 6.96812	 8.94880	-1.06100
	294	1	7	-1.05000	 6.54557	15.16980	-1.06400
	295	1	10	-1.08090	 9.15268	16.20380	-0.99300
	296	1	7	-1.05000	 4.90313	14.43980	-3.29800
	297	1	7	-1.05000	 6.57887	16.46080	-3.29400
	298	1	7	-1.05000	 7.50681	13.96080	-3.05600
	299	1	4	 1.57500	 5.15682	14.94680	-0.00100
	300	1	11	 2.10000	 6.42396	13.42380	 2.68100
	301	1	11	 2.10000	 6.49888	16.37180	 2.68600
	302	1	7	-1.05000	 5.93188	13.46580	 1.06100
	303	1	7	-1.05000	 6.35343	16.20980	 1.06400
	304	1	10	-1.08090	 8.90732	15.17680	 0.99300
	305	1	7	-1.05000	 7.99687	16.93980	 3.29800
	306	1	7	-1.05000	 6.32213	14.91880	 3.29400
	307	1	7	-1.05000	 5.39319	17.41980	 3.05600
	308	1	4	 1.57500	 5.16218	11.95080	 0.00100
	309	1	11	 2.10000	 9.05704	13.47380	-2.68100
	310	1	11	 2.10000	 8.98112	10.52580	-2.68600
	311	1	8	-1.18080	 9.54912	13.43180	-1.06100
	312	1	7	-1.05000	 9.12557	10.68680	-1.06400
	313	1	9	-0.95000	 6.57268	11.72080	-0.99300
	314	1	7	-1.05000	 7.48313	 9.95780	-3.29800
	315	1	7	-1.05000	 9.15887	11.97780	-3.29400
	316	1	7	-1.05000	 4.92681	 9.47780	-3.05600
	317	1	5	 0.42500	 6.22601	10.26972	 1.81308
	318	1	5	 0.42500	 9.25439	16.62783	-1.81298
	319	1	5	 0.42500	 8.80641	14.75267	 1.81317
	320	1	5	 0.42500	 6.67399	12.14488	-1.81308
	321	1	4	 1.57500	12.89782	10.46380	-0.00100
	322	1	11	 2.10000	14.16396	 8.94080	 2.68100
	323	1	11	 2.10000	14.23888	11.88880	 2.68600
	324	1	7	-1.05000	13.67188	 8.98280	 1.06100
	325	1	7	-1.05000	14.09443	11.72780	 1.06400
	326	1	9	-0.95000	11.48732	10.69380	 0.99300
	327	1	7	-1.05000	10.57687	12.45680	 3.29800
	328	1	7	-1.05000	14.06213	10.43680	 3.29400
	329	1	7	-1.05000	13.13319	12.93680	 3.05600
	330	1	4	 1.57500	12.90218	16.43380	 0.00100
	331	1	11	 2.10000	11.63604	 8.99080	-2.68100
	332	1	11	 2.10000	11.56112	15.00880	-2.68600
	333	1	7	-1.05000	12.12812	 8.94880	-1.06100
	334	1	8	-1.18080	11.70557	15.16980	-1.06400
	335	1	9	-0.95000	14.31268	16.20380	-0.99300
	336	1	7	-1.05000	10.06313	14.43980	-3.29800
	337	1	7	-1.05000	11.73887	16.46080	-3.29400
	338	1	7	-1.05000	12.66681	13.96080	-3.05600
	339	1	6	 1.36000	10.31682	14.94680	-0.00100
	340	1	11	 2.10000	11.58396	13.42380	 2.68100
	341	1	11	 2.10000	11.65888	16.37180	 2.68600
	342	1	8	-1.18080	11.09188	13.46580	 1.06100
	343	1	8	-1.18080	11.51343	16.20980	 1.06400
	344	1	9	-0.95000	14.06732	15.17680	 0.99300
	345	1	7	-1.05000	13.15687	16.93980	 3.29800
	346	1	7	-1.05000	11.48213	14.91880	 3.29400
	347	1	7	-1.05000	10.55319	17.41980	 3.05600
	348	1	4	 1.57500	10.32218	11.95080	 0.00100
	349	1	11	 2.10000	14.21704	13.47380	-2.68100
	350	1	11	 2.10000	14.14112	10.52580	-2.68600
	351	1	7	-1.05000	14.70912	13.43180	-1.06100
	352	1	7	-1.05000	14.28557	10.68680	-1.06400
	353	1	9	-0.95000	11.73268	11.72080	-0.99300
	354	1	7	-1.05000	12.64313	 9.95780	-3.29800
	355	1	7	-1.05000	14.31887	11.97780	-3.29400
	356	1	7	-1.05000	10.08681	 9.47780	-3.05600
	357	1	5	 0.42500	11.38601	10.26972	 1.81308
	358	1	5	 0.42500	14.41439	16.62783	-1.81298
	359	1	5	 0.42500	13.96641	14.75267	 1.81317
	360	1	5	 0.42500	11.83399	12.14488	-1.81308
	361	1	6	 1.36000	18.05782	10.46380	-0.00100
	362	1	11	 2.10000	19.32396	 8.94080	 2.68100
	363	1	11	 2.10000	19.39888	11.88880	 2.68600
	364	1	8	-1.18080	18.83188	 8.98280	 1.06100
	365	1	8	-1.18080	19.25443	11.72780	 1.06400
	366	1	10	-1.08090	16.64732	10.69380	 0.99300
	367	1	7	-1.05000	15.73687	12.45680	 3.29800
	368	1	7	-1.05000	19.22213	10.43680	 3.29400
	369	1	7	-1.05000	18.29319	12.93680	 3.05600
	370	1	4	 1.57500	18.06218	16.43380	 0.00100
	371	1	11	 2.10000	16.79604	 8.99080	-2.68100
	372	1	11	 2.10000	16.72112	15.00880	-2.68600
	373	1	8	-1.18080	17.28812	 8.94880	-1.06100
	374	1	7	-1.05000	16.86557	15.16980	-1.06400
	375	1	9	-0.95000	19.47268	16.20380	-0.99300
	376	1	7	-1.05000	15.22313	14.43980	-3.29800
	377	1	7	-1.05000	16.89887	16.46080	-3.29400
	378	1	7	-1.05000	17.82681	13.96080	-3.05600
	379	1	4	 1.57500	15.47682	14.94680	-0.00100
	380	1	11	 2.10000	16.74396	13.42380	 2.68100
	381	1	11	 2.10000	16.81888	16.37180	 2.68600
	382	1	7	-1.05000	16.25188	13.46580	 1.06100
	383	1	7	-1.05000	16.67343	16.20980	 1.06400
	384	1	9	-0.95000	19.22732	15.17680	 0.99300
	385	1	7	-1.05000	18.31687	16.93980	 3.29800
	386	1	7	-1.05000	16.64213	14.91880	 3.29400
	387	1	7	-1.05000	15.71319	17.41980	 3.05600
	388	1	4	 1.57500	15.48218	11.95080	 0.00100
	389	1	11	 2.10000	19.37704	13.47380	-2.68100
	390	1	11	 2.10000	19.30112	10.52580	-2.68600
	391	1	7	-1.05000	19.86912	13.43180	-1.06100
	392	1	8	-1.18080	19.44557	10.68680	-1.06400
	393	1	10	-1.08090	16.89268	11.72080	-0.99300
	394	1	7	-1.05000	17.80313	 9.95780	-3.29800
	395	1	7	-1.05000	19.47887	11.97780	-3.29400
	396	1	7	-1.05000	15.24681	 9.47780	-3.05600
	397	1	5	 0.42500	16.54601	10.26972	 1.81308
	398	1	5	 0.42500	19.57439	16.62783	-1.81298
	399	1	5	 0.42500	19.12641	14.75267	 1.81317
	400	1	5	 0.42500	16.99399	12.14488	-1.81308
	401	1	4	 1.57500	23.21782	10.46380	-0.00100
	402	1	11	 2.10000	24.48396	 8.94080	 2.68100
	403	1	11	 2.10000	24.55888	11.88880	 2.68600
	404	1	8	-1.18080	23.99188	 8.98280	 1.06100
	405	1	7	-1.05000	24.41443	11.72780	 1.06400
	406	1	9	-0.95000	21.80732	10.69380	 0.99300
	407	1	7	-1.05000	20.89687	12.45680	 3.29800
	408	1	7	-1.05000	24.38213	10.43680	 3.29400
	409	1	7	-1.05000	23.45319	12.93680	 3.05600
	410	1	6	 1.36000	23.22218	16.43380	 0.00100
	411	1	11	 2.10000	21.95604	 8.99080	-2.68100
	412	1	11	 2.10000	21.88112	15.00880	-2.68600
	413	1	8	-1.18080	22.44812	 8.94880	-1.06100
	414	1	8	-1.18080	22.02557	15.16980	-1.06400
	415	1	10	-1.08090	24.63268	16.20380	-0.99300
	416	1	7	-1.05000	20.38313	14.43980	-3.29800
	417	1	7	-1.05000	22.05887	16.46080	-3.29400
	418	1	7	-1.05000	22.98681	13.96080	-3.05600
	419	1	4	 1.57500	20.63682	14.94680	-0.00100
	420	1	11	 2.10000	21.90396	13.42380	 2.68100
	421	1	11	 2.10000	21.97888	16.37180	 2.68600
	422	1	7	-1.05000	21.41188	13.46580	 1.06100
	423	1	8	-1.18080	21.83343	16.20980	 1.06400
	424	1	10	-1.08090	24.38732	15.17680	 0.99300
	425	1	7	-1.05000	23.47687	16.93980	 3.29800
	426	1	7	-1.05000	21.80213	14.91880	 3.29400
	427	1	7	-1.05000	20.87319	17.41980	 3.05600
	428	1	4	 1.57500	20.64218	11.95080	 0.00100
	429	1	11	 2.10000	24.53704	13.47380	-2.68100
	430	1	11	 2.10000	24.46112	10.52580	-2.68600
	431	1	7	-1.05000	25.02912	13.43180	-1.06100
	432	1	7	-1.05000	24.60557	10.68680	-1.06400
	433	1	9	-0.95000	22.05268	11.72080	-0.99300
	434	1	7	-1.05000	22.96313	 9.95780	-3.29800
	435	1	7	-1.05000	24.63887	11.97780	-3.29400
	436	1	7	-1.05000	20.40681	 9.47780	-3.05600
	437	1	5	 0.42500	21.70601	10.26972	 1.81308
	438	1	5	 0.42500	24.73439	16.62783	-1.81298
	439	1	5	 0.42500	24.28641	14.75267	 1.81317
	440	1	5	 0.42500	22.15399	12.14488	-1.81308
	441	1	4	 1.57500	28.37782	10.46380	-0.00100
	442	1	11	 2.10000	29.64396	 8.94080	 2.68100
	443	1	11	 2.10000	29.71888	11.88880	 2.68600
	444	1	7	-1.05000	29.15188	 8.98280	 1.06100
	445	1	8	-1.18080	29.57443	11.72780	 1.06400
	446	1	9	-0.95000	26.96732	10.69380	 0.99300
	447	1	7	-1.05000	26.05687	12.45680	 3.29800
	448	1	7	-1.05000	29.54213	10.43680	 3.29400
	449	1	7	-1.05000	28.61319	12.93680	 3.05600
	450	1	4	 1.57500	28.38218	16.43380	 0.00100
	451	1	11	 2.10000	27.11604	 8.99080	-2.68100
	452	1	11	 2.10000	27.04112	15.00880	-2.68600
	453	1	7	-1.05000	27.60812	 8.94880	-1.06100
	454	1	7	-1.05000	27.18557	15.16980	-1.06400
	455	1	9	-0.95000	29.79268	16.20380	-0.99300
	456	1	7	-1.05000	25.54313	14.43980	-3.29800
	457	1	7	-1.05000	27.21887	16.46080	-3.29400
	458	1	7	-1.05000	28.14681	13.96080	-3.05600
	459	1	4	 1.57500	25.79682	14.94680	-0.00100
	460	1	11	 2.10000	27.06396	13.42380	 2.68100
	461	1	11	 2.10000	27.13888	16.37180	 2.68600
	462	1	7	-1.05000	26.57188	13.46580	 1.06100
	463	1	7	-1.05000	26.99343	16.20980	 1.06400
	464	1	9	-0.95000	29.54732	15.17680	 0.99300
	465	1	7	-1.05000	28.63687	16.93980	 3.29800
	466	1	7	-1.05000	26.96213	14.91880	 3.29400
	467	1	7	-1.05000	26.03319	17.41980	 3.05600
	468	1	4	 1.57500	25.80218	11.95080	 0.00100
	469	1	11	 2.10000	29.69704	13.47380	-2.68100
	470	1	11	 2.10000	29.62112	10.52580	-2.68600
	471	1	8	-1.18080	30.18912	13.43180	-1.06100
	472	1	8	-1.18080	29.76557	10.68680	-1.06400
	473	1	9	-0.95000	27.21268	11.72080	-0.99300
	474	1	7	-1.05000	28.12313	 9.95780	-3.29800
	475	1	7	-1.05000	29.79887	11.97780	-3.29400
	476	1	7	-1.05000	25.56681	 9.47780	-3.05600
	477	1	5	 0.42500	26.86601	10.26972	 1.81308
	478	1	5	 0.42500	29.89439	16.62783	-1.81298
	479	1	5	 0.42500	29.44641	14.75267	 1.81317
	480	1	5	 0.42500	27.31399	12.14488	-1.81308
	481	1	4	 1.57500	 2.57782	19.42960	-0.00100
	482	1	11	 2.10000	 3.84396	17.90660	 2.68100
	483	1	11	 2.10000	 3.91888	20.85460	 2.68600
	484	1	7	-1.05000	 3.35188	17.94860	 1.06100
	485	1	7	-1.05000	 3.77443	20.69360	 1.06400
	486	1	10	-1.08090	 1.16732	19.65960	 0.99300
	487	1	7	-1.05000	 0.25687	21.42260	 3.29800
	488	1	7	-1.05000	 3.74213	19.40260	 3.29400
	489	1	7	-1.05000	 2.81319	21.90260	 3.05600
	490	1	4	 1.57500	 2.58218	25.39960	 0.00100
	491	1	11	 2.10000	 1.31604	17.95660	-2.68100
	492	1	11	 2.10000	 1.24112	23.97460	-2.68600
	493	1	7	-1.05000	 1.80812	17.91460	-1.06100
	494	1	7	-1.05000	 1.38557	24.13560	-1.06400
	495	1	10	-1.08090	 3.99268	25.16960	-0.99300
	496	1	7	-1.05000	-0.25687	23.40560	-3.29800
	497	1	7	-1.05000	 1.41887	25.42660	-3.29400
	498	1	7	-1.05000	 2.34681	22.92660	-3.05600
	499	1	4	 1.57500	-0.00318	23.91260	-0.00100
	500	1	11	 2.10000	 1.26396	22.38960	 2.68100
	501	1	11	 2.10000	 1.33888	25.33760	 2.68600
	502	1	8	-1.18080	 0.77188	22.43160	 1.06100
	503	1	7	-1.05000	 1.19343	25.17560	 1.06400
	504	1	10	-1.08090	 3.74732	24.14260	 0.99300
	505	1	7	-1.05000	 2.83687	25.90560	 3.29800
	506	1	7	-1.05000	 1.16213	23.88460	 3.29400
	507	1	7	-1.05000	 0.23319	26.38560	 3.05600
	508	1	6	 1.36000	 0.00218	20.91660	 0.00100
	509	1	11	 2.10000	 3.89704	22.43960	-2.68100
	510	1	11	 2.10000	 3.82112	19.49160	-2.68600
	511	1	8	-1.18080	 4.38912	22.39760	-1.06100
	512	1	7	-1.05000	 3.96557	19.65260	-1.06400
	513	1	10	-1.08090	 1.41268	20.68660	-0.99300
	514	1	7	-1.05000	 2.32313	18.92360	-3.29800
	515	1	7	-1.05000	 3.99887	20.94360	-3.29400
	516	1	7	-1.05000	-0.23319	18.44360	-3.05600
	517	1	5	 0.42500	 1.06601	19.23552	 1.81308
	518	1	5	 0.42500	 4.09439	25.59363	-1.81298
	519	1	5	 0.42500	 3.64641	23.71847	 1.81317
	520	1	5	 0.42500	 1.51399	21.11068	-1.81308
	521	1	4	 1.57500	 7.73782	19.42960	-0.00100
	522	1	11	 2.10000	 9.00396	17.90660	 2.68100
	523	1	11	 2.10000	 9.07888	20.85460	 2.68600
	524	1	7	-1.05000	 8.51188	17.94860	 1.06100
	525	1	7	-1.05000	 8.93443	20.69360	 1.06400
	526	1	9	-0.95000	 6.32732	19.65960	 0.99300
	527	1	7	-1.05000	 5.41687	21.42260	 3.29800
	528	1	7	-1.05000	 8.90213	19.40260	 3.29400
	529	1	7	-1.05000	 7.97319	21.90260	 3.05600
	530	1	4	 1.57500	 7.74218	25.39960	 0.00100
	531	1	11	 2.10000	 6.47604	17.95660	-2.68100
	532	1	11	 2.10000	 6.40112	23.97460	-2.68600
	533	1	7	-1.05000	 6.96812	17.91460	-1.06100
	534	1	8	-1.18080	 6.54557	24.13560	-1.06400
	535	1	9	-0.95000	 9.15268	25.16960	-0.99300
	536	1	7	-1.05000	 4.90313	23.40560	-3.29800
	537	1	7	-1.05000	 6.57887	25.42660	-3.29400
	538	1	7	-1.05000	 7.50681	22.92660	-3.05600
	539	1	6	 1.36000	 5.15682	23.91260	-0.00100
	540	1	11	 2.10000	 6.42396	22.38960	 2.68100
	541	1	11	 2.10000	 6.49888	25.33760	 2.68600
	542	1	8	-1.18080	 5.93188	22.43160	 1.06100
	543	1	8	-1.18080	 6.35343	25.17560	 1.06400
	544	1	9	-0.95000	 8.90732	24.14260	 0.99300
	545	1	7	-1.05000	 7.99687	25.90560	 3.29800
	546	1	7	-1.05000	 6.32213	23.88460	 3.29400
	547	1	7	-1.05000	 5.39319	26.38560	 3.05600
	548	1	4	 1.57500	 5.16218	20.91660	 0.00100
	549	1	11	 2.10000	 9.05704	22.43960	-2.68100
	550	1	11	 2.10000	 8.98112	19.49160	-2.68600
	551	1	7	-1.05000	 9.54912	22.39760	-1.06100
	552	1	7	-1.05000	 9.12557	19.65260	-1.06400
	553	1	9	-0.95000	 6.57268	20.68660	-0.99300
	554	1	7	-1.05000	 7.48313	18.92360	-3.29800
	555	1	7	-1.05000	 9.15887	20.94360	-3.29400
	556	1	7	-1.05000	 4.92681	18.44360	-3.05600
	557	1	5	 0.42500	 6.22601	19.23552	 1.81308
	558	1	5	 0.42500	 9.25439	25.59363	-1.81298
	559	1	5	 0.42500	 8.80641	23.71847	 1.81317
	560	1	5	 0.42500	 6.67399	21.11068	-1.81308
	561	1	4	 1.57500	12.89782	19.42960	-0.00100
	562	1	11	 2.10000	14.16396	17.90660	 2.68100
	563	1	11	 2.10000	14.23888	20.85460	 2.68600
	564	1	7	-1.05000	13.67188	17.94860	 1.06100
	565	1	7	-1.05000	14.09443	20.69360	 1.06400
	566	1	9	-0.95000	11.48732	19.65960	 0.99300
	567	1	7	-1.05000	10.57687	21.42260	 3.29800
	568	1	7	-1.05000	14.06213	19.40260	 3.29400
	569	1	7	-1.05000	13.13319	21.90260	 3.05600
	570	1	6	 1.36000	12.90218	25.39960	 0.00100
	571	1	11	 2.10000	11.63604	17.95660	-2.68100
	572	1	11	 2.10000	11.56112	23.97460	-2.68600
	573	1	7	-1.05000	12.12812	17.91460	-1.06100
	574	1	8	-1.18080	11.70557	24.13560	-1.06400
	575	1	10	-1.08090	14.31268	25.16960	-0.99300
	576	1	7	-1.05000	10.06313	23.40560	-3.29800
	577	1	7	-1.05000	11.73887	25.42660	-3.29400
	578	1	7	-1.05000	12.66681	22.92660	-3.05600
	579	1	4	 1.57500	10.31682	23.91260	-0.00100
	580	1	11	 2.10000	11.58396	22.38960	 2.68100
	581	1	11	 2.10000	11.65888	25.33760	 2.68600
	582	1	7	-1.05000	11.09188	22.43160	 1.06100
	583	1	8	-1.18080	11.51343	25.17560	 1.06400
	584	1	10	-1.08090	14.06732	24.14260	 0.99300
	585	1	7	-1.05000	13.15687	25.90560	 3.29800
	586	1	7	-1.05000	11.48213	23.88460	 3.29400
	587	1	7	-1.05000	10.55319	26.38560	 3.05600
	588	1	4	 1.57500	10.32218	20.91660	 0.00100
	589	1	11	 2.10000	14.21704	22.43960	-2.68100
	590	1	11	 2.10000	14.14112	19.49160	-2.68600
	591	1	7	-1.05000	14.70912	22.39760	-1.06100
	592	1	7	-1.05000	14.28557	19.65260	-1.06400
	593	1	9	-0.95000	11.73268	20.68660	-0.99300
	594	1	7	-1.05000	12.64313	18.92360	-3.29800
	595	1	7	-1.05000	14.31887	20.94360	-3.29400
	596	1	7	-1.05000	10.08681	18.44360	-3.05600
	597	1	5	 0.42500	11.38601	19.23552	 1.81308
	598	1	5	 0.42500	14.41439	25.59363	-1.81298
	599	1	5	 0.42500	13.96641	23.71847	 1.81317
	600	1	5	 0.42500	11.83399	21.11068	-1.81308
	601	1	6	 1.36000	18.05782	19.42960	-0.00100
	602	1	11	 2.10000	19.32396	17.90660	 2.68100
	603	1	11	 2.10000	19.39888	20.85460	 2.68600
	604	1	8	-1.18080	18.83188	17.94860	 1.06100
	605	1	8	-1.18080	19.25443	20.69360	 1.06400
	606	1	10	-1.08090	16.64732	19.65960	 0.99300
	607	1	7	-1.05000	15.73687	21.42260	 3.29800
	608	1	7	-1.05000	19.22213	19.40260	 3.29400
	609	1	7	-1.05000	18.29319	21.90260	 3.05600
	610	1	4	 1.57500	18.06218	25.39960	 0.00100
	611	1	11	 2.10000	16.79604	17.95660	-2.68100
	612	1	11	 2.10000	16.72112	23.97460	-2.68600
	613	1	8	-1.18080	17.28812	17.91460	-1.06100
	614	1	7	-1.05000	16.86557	24.13560	-1.06400
	615	1	9	-0.95000	19.47268	25.16960	-0.99300
	616	1	7	-1.05000	15.22313	23.40560	-3.29800
	617	1	7	-1.05000	16.89887	25.42660	-3.29400
	618	1	7	-1.05000	17.82681	22.92660	-3.05600
	619	1	4	 1.57500	15.47682	23.91260	-0.00100
	620	1	11	 2.10000	16.74396	22.38960	 2.68100
	621	1	11	 2.10000	16.81888	25.33760	 2.68600
	622	1	7	-1.05000	16.25188	22.43160	 1.06100
	623	1	7	-1.05000	16.67343	25.17560	 1.06400
	624	1	9	-0.95000	19.22732	24.14260	 0.99300
	625	1	7	-1.05000	18.31687	25.90560	 3.29800
	626	1	7	-1.05000	16.64213	23.88460	 3.29400
	627	1	7	-1.05000	15.71319	26.38560	 3.05600
	628	1	4	 1.57500	15.48218	20.91660	 0.00100
	629	1	11	 2.10000	19.37704	22.43960	-2.68100
	630	1	11	 2.10000	19.30112	19.49160	-2.68600
	631	1	7	-1.05000	19.86912	22.39760	-1.06100
	632	1	8	-1.18080	19.44557	19.65260	-1.06400
	633	1	10	-1.08090	16.89268	20.68660	-0.99300
	634	1	7	-1.05000	17.80313	18.92360	-3.29800