LAMMPS input data file #29-Oct-2019 14:31:00

3976 atoms
2096 bonds
1000 angles
   
12 atom types
6 bond types
3 angle types

0 30.96 xlo xhi
0 35.8632 ylo yhi
0 40 zlo zhi
       

Masses 

1 26.9815 # Hw
2 28.0855 # Na
3 28.0855 # Ow
4 15.9994 # ao
5 15.9994 # ho
6 15.9994 # mgo
7 15.9994 # ob
8 15.9994 # obos
9 15.9994 # oh
10 1.00794 # ohs
11 26.9815 # op
12 28.0855 # st

Pair Coeffs 

1 0.000000E+00 0.000000 # Hw
2 0.000000E+00 0.000000 # Na
3 1.529199E-02 2.159538 # Ow
4 6.738778E-03 3.165541 # ao
5 5.766555E-08 4.271236 # ho
6 0.000000E+00 0.000000 # mgo
7 3.915690E-08 5.264321 # ob
8 6.738778E-03 3.165541 # obos
9 6.738778E-03 3.165541 # oh
10 6.738778E-03 3.165541 # ohs
11 6.738778E-03 3.165541 # op
12 6.738778E-03 3.165541 # st

Atoms 

	1	1	4	 1.57500	 2.57782	 1.49800	-0.00100
	2	1	12	 2.10000	 3.84396	-0.02500	 2.68100
	3	1	12	 2.10000	 3.91888	 2.92300	 2.68600
	4	1	11	-1.05000	 3.35188	 0.01700	 1.06100
	5	1	8	-1.18080	 3.77443	 2.76200	 1.06400
	6	1	9	-0.95000	 1.16732	 1.72800	 0.99300
	7	1	7	-1.05000	 0.25687	 3.49100	 3.29800
	8	1	7	-1.05000	 3.74213	 1.47100	 3.29400
	9	1	7	-1.05000	 2.81319	 3.97100	 3.05600
	10	1	5	 0.42500	 0.85489	 1.01700	 1.42400
	11	1	4	 1.57500	 2.58218	 7.46800	 0.00100
	12	1	12	 2.10000	 1.31604	 0.02500	-2.68100
	13	1	12	 2.10000	 1.24112	 6.04300	-2.68600
	14	1	11	-1.05000	 1.80812	-0.01700	-1.06100
	15	1	8	-1.18080	 1.38557	 6.20400	-1.06400
	16	1	9	-0.95000	 3.99268	 7.23800	-0.99300
	17	1	7	-1.05000	-0.25687	 5.47400	-3.29800
	18	1	7	-1.05000	 1.41887	 7.49500	-3.29400
	19	1	7	-1.05000	 2.34681	 4.99500	-3.05600
	20	1	5	 0.42500	 4.30511	 7.94900	-1.42400
	21	1	6	 1.36000	-0.00318	 5.98100	-0.00100
	22	1	12	 2.10000	 1.26396	 4.45800	 2.68100
	23	1	12	 2.10000	 1.33888	 7.40600	 2.68600
	24	1	8	-1.18080	 0.77188	 4.50000	 1.06100
	25	1	8	-1.18080	 1.19343	 7.24400	 1.06400
	26	1	9	-0.95000	 3.74732	 6.21100	 0.99300
	27	1	7	-1.05000	 2.83687	 7.97400	 3.29800
	28	1	7	-1.05000	 1.16213	 5.95300	 3.29400
	29	1	7	-1.05000	 0.23319	 8.45400	 3.05600
	30	1	5	 0.42500	 3.43489	 5.50000	 1.42400
	31	1	4	 1.57500	 0.00218	 2.98500	 0.00100
	32	1	12	 2.10000	 3.89704	 4.50800	-2.68100
	33	1	12	 2.10000	 3.82112	 1.56000	-2.68600
	34	1	8	-1.18080	 4.38912	 4.46600	-1.06100
	35	1	8	-1.18080	 3.96557	 1.72100	-1.06400
	36	1	9	-0.95000	 1.41268	 2.75500	-0.99300
	37	1	7	-1.05000	 2.32313	 0.99200	-3.29800
	38	1	7	-1.05000	 3.99887	 3.01200	-3.29400
	39	1	7	-1.05000	-0.23319	 0.51200	-3.05600
	40	1	5	 0.42500	 1.72511	 3.46600	-1.42400
	41	1	4	 1.57500	 7.73782	 1.49800	-0.00100
	42	1	12	 2.10000	 9.00396	-0.02500	 2.68100
	43	1	12	 2.10000	 9.07888	 2.92300	 2.68600
	44	1	11	-1.05000	 8.51188	 0.01700	 1.06100
	45	1	11	-1.05000	 8.93443	 2.76200	 1.06400
	46	1	10	-1.08090	 6.32732	 1.72800	 0.99300
	47	1	7	-1.05000	 5.41687	 3.49100	 3.29800
	48	1	7	-1.05000	 8.90213	 1.47100	 3.29400
	49	1	7	-1.05000	 7.97319	 3.97100	 3.05600
	50	1	5	 0.42500	 6.01489	 1.01700	 1.42400
	51	1	4	 1.57500	 7.74218	 7.46800	 0.00100
	52	1	12	 2.10000	 6.47604	 0.02500	-2.68100
	53	1	12	 2.10000	 6.40112	 6.04300	-2.68600
	54	1	11	-1.05000	 6.96812	-0.01700	-1.06100
	55	1	11	-1.05000	 6.54557	 6.20400	-1.06400
	56	1	9	-0.95000	 9.15268	 7.23800	-0.99300
	57	1	7	-1.05000	 4.90313	 5.47400	-3.29800
	58	1	7	-1.05000	 6.57887	 7.49500	-3.29400
	59	1	7	-1.05000	 7.50681	 4.99500	-3.05600
	60	1	5	 0.42500	 9.46511	 7.94900	-1.42400
	61	1	4	 1.57500	 5.15682	 5.98100	-0.00100
	62	1	12	 2.10000	 6.42396	 4.45800	 2.68100
	63	1	12	 2.10000	 6.49888	 7.40600	 2.68600
	64	1	8	-1.18080	 5.93188	 4.50000	 1.06100
	65	1	11	-1.05000	 6.35343	 7.24400	 1.06400
	66	1	9	-0.95000	 8.90732	 6.21100	 0.99300
	67	1	7	-1.05000	 7.99687	 7.97400	 3.29800
	68	1	7	-1.05000	 6.32213	 5.95300	 3.29400
	69	1	7	-1.05000	 5.39319	 8.45400	 3.05600
	70	1	5	 0.42500	 8.59489	 5.50000	 1.42400
	71	1	6	 1.36000	 5.16218	 2.98500	 0.00100
	72	1	12	 2.10000	 9.05704	 4.50800	-2.68100
	73	1	12	 2.10000	 8.98112	 1.56000	-2.68600
	74	1	11	-1.05000	 9.54912	 4.46600	-1.06100
	75	1	11	-1.05000	 9.12557	 1.72100	-1.06400
	76	1	10	-1.08090	 6.57268	 2.75500	-0.99300
	77	1	7	-1.05000	 7.48313	 0.99200	-3.29800
	78	1	7	-1.05000	 9.15887	 3.01200	-3.29400
	79	1	7	-1.05000	 4.92681	 0.51200	-3.05600
	80	1	5	 0.42500	 6.88511	 3.46600	-1.42400
	81	1	4	 1.57500	12.89782	 1.49800	-0.00100
	82	1	12	 2.10000	14.16396	-0.02500	 2.68100
	83	1	12	 2.10000	14.23888	 2.92300	 2.68600
	84	1	8	-1.18080	13.67188	 0.01700	 1.06100
	85	1	11	-1.05000	14.09443	 2.76200	 1.06400
	86	1	9	-0.95000	11.48732	 1.72800	 0.99300
	87	1	7	-1.05000	10.57687	 3.49100	 3.29800
	88	1	7	-1.05000	14.06213	 1.47100	 3.29400
	89	1	7	-1.05000	13.13319	 3.97100	 3.05600
	90	1	5	 0.42500	11.17489	 1.01700	 1.42400
	91	1	4	 1.57500	12.90218	 7.46800	 0.00100
	92	1	12	 2.10000	11.63604	 0.02500	-2.68100
	93	1	12	 2.10000	11.56112	 6.04300	-2.68600
	94	1	8	-1.18080	12.12812	-0.01700	-1.06100
	95	1	11	-1.05000	11.70557	 6.20400	-1.06400
	96	1	9	-0.95000	14.31268	 7.23800	-0.99300
	97	1	7	-1.05000	10.06313	 5.47400	-3.29800
	98	1	7	-1.05000	11.73887	 7.49500	-3.29400
	99	1	7	-1.05000	12.66681	 4.99500	-3.05600
	100	1	5	 0.42500	14.62511	 7.94900	-1.42400
	101	1	4	 1.57500	10.31682	 5.98100	-0.00100
	102	1	12	 2.10000	11.58396	 4.45800	 2.68100
	103	1	12	 2.10000	11.65888	 7.40600	 2.68600
	104	1	11	-1.05000	11.09188	 4.50000	 1.06100
	105	1	11	-1.05000	11.51343	 7.24400	 1.06400
	106	1	9	-0.95000	14.06732	 6.21100	 0.99300
	107	1	7	-1.05000	13.15687	 7.97400	 3.29800
	108	1	7	-1.05000	11.48213	 5.95300	 3.29400
	109	1	7	-1.05000	10.55319	 8.45400	 3.05600
	110	1	5	 0.42500	13.75489	 5.50000	 1.42400
	111	1	4	 1.57500	10.32218	 2.98500	 0.00100
	112	1	12	 2.10000	14.21704	 4.50800	-2.68100
	113	1	12	 2.10000	14.14112	 1.56000	-2.68600
	114	1	11	-1.05000	14.70912	 4.46600	-1.06100
	115	1	11	-1.05000	14.28557	 1.72100	-1.06400
	116	1	9	-0.95000	11.73268	 2.75500	-0.99300
	117	1	7	-1.05000	12.64313	 0.99200	-3.29800
	118	1	7	-1.05000	14.31887	 3.01200	-3.29400
	119	1	7	-1.05000	10.08681	 0.51200	-3.05600
	120	1	5	 0.42500	12.04511	 3.46600	-1.42400
	121	1	6	 1.36000	18.05782	 1.49800	-0.00100
	122	1	12	 2.10000	19.32396	-0.02500	 2.68100
	123	1	12	 2.10000	19.39888	 2.92300	 2.68600
	124	1	8	-1.18080	18.83188	 0.01700	 1.06100
	125	1	8	-1.18080	19.25443	 2.76200	 1.06400
	126	1	10	-1.08090	16.64732	 1.72800	 0.99300
	127	1	7	-1.05000	15.73687	 3.49100	 3.29800
	128	1	7	-1.05000	19.22213	 1.47100	 3.29400
	129	1	7	-1.05000	18.29319	 3.97100	 3.05600
	130	1	5	 0.42500	16.33489	 1.01700	 1.42400
	131	1	6	 1.36000	18.06218	 7.46800	 0.00100
	132	1	12	 2.10000	16.79604	 0.02500	-2.68100
	133	1	12	 2.10000	16.72112	 6.04300	-2.68600
	134	1	8	-1.18080	17.28812	-0.01700	-1.06100
	135	1	8	-1.18080	16.86557	 6.20400	-1.06400
	136	1	10	-1.08090	19.47268	 7.23800	-0.99300
	137	1	7	-1.05000	15.22313	 5.47400	-3.29800
	138	1	7	-1.05000	16.89887	 7.49500	-3.29400
	139	1	7	-1.05000	17.82681	 4.99500	-3.05600
	140	1	5	 0.42500	19.78511	 7.94900	-1.42400
	141	1	4	 1.57500	15.47682	 5.98100	-0.00100
	142	1	12	 2.10000	16.74396	 4.45800	 2.68100
	143	1	12	 2.10000	16.81888	 7.40600	 2.68600
	144	1	11	-1.05000	16.25188	 4.50000	 1.06100
	145	1	8	-1.18080	16.67343	 7.24400	 1.06400
	146	1	10	-1.08090	19.22732	 6.21100	 0.99300
	147	1	7	-1.05000	18.31687	 7.97400	 3.29800
	148	1	7	-1.05000	16.64213	 5.95300	 3.29400
	149	1	7	-1.05000	15.71319	 8.45400	 3.05600
	150	1	5	 0.42500	18.91489	 5.50000	 1.42400
	151	1	4	 1.57500	15.48218	 2.98500	 0.00100
	152	1	12	 2.10000	19.37704	 4.50800	-2.68100
	153	1	12	 2.10000	19.30112	 1.56000	-2.68600
	154	1	11	-1.05000	19.86912	 4.46600	-1.06100
	155	1	8	-1.18080	19.44557	 1.72100	-1.06400
	156	1	10	-1.08090	16.89268	 2.75500	-0.99300
	157	1	7	-1.05000	17.80313	 0.99200	-3.29800
	158	1	7	-1.05000	19.47887	 3.01200	-3.29400
	159	1	7	-1.05000	15.24681	 0.51200	-3.05600
	160	1	5	 0.42500	17.20511	 3.46600	-1.42400
	161	1	4	 1.57500	23.21782	 1.49800	-0.00100
	162	1	12	 2.10000	24.48396	-0.02500	 2.68100
	163	1	12	 2.10000	24.55888	 2.92300	 2.68600
	164	1	11	-1.05000	23.99188	 0.01700	 1.06100
	165	1	8	-1.18080	24.41443	 2.76200	 1.06400
	166	1	9	-0.95000	21.80732	 1.72800	 0.99300
	167	1	7	-1.05000	20.89687	 3.49100	 3.29800
	168	1	7	-1.05000	24.38213	 1.47100	 3.29400
	169	1	7	-1.05000	23.45319	 3.97100	 3.05600
	170	1	5	 0.42500	21.49489	 1.01700	 1.42400
	171	1	4	 1.57500	23.22218	 7.46800	 0.00100
	172	1	12	 2.10000	21.95604	 0.02500	-2.68100
	173	1	12	 2.10000	21.88112	 6.04300	-2.68600
	174	1	11	-1.05000	22.44812	-0.01700	-1.06100
	175	1	11	-1.05000	22.02557	 6.20400	-1.06400
	176	1	9	-0.95000	24.63268	 7.23800	-0.99300
	177	1	7	-1.05000	20.38313	 5.47400	-3.29800
	178	1	7	-1.05000	22.05887	 7.49500	-3.29400
	179	1	7	-1.05000	22.98681	 4.99500	-3.05600
	180	1	5	 0.42500	24.94511	 7.94900	-1.42400
	181	1	4	 1.57500	20.63682	 5.98100	-0.00100
	182	1	12	 2.10000	21.90396	 4.45800	 2.68100
	183	1	12	 2.10000	21.97888	 7.40600	 2.68600
	184	1	11	-1.05000	21.41188	 4.50000	 1.06100
	185	1	11	-1.05000	21.83343	 7.24400	 1.06400
	186	1	9	-0.95000	24.38732	 6.21100	 0.99300
	187	1	7	-1.05000	23.47687	 7.97400	 3.29800
	188	1	7	-1.05000	21.80213	 5.95300	 3.29400
	189	1	7	-1.05000	20.87319	 8.45400	 3.05600
	190	1	5	 0.42500	24.07489	 5.50000	 1.42400
	191	1	4	 1.57500	20.64218	 2.98500	 0.00100
	192	1	12	 2.10000	24.53704	 4.50800	-2.68100
	193	1	12	 2.10000	24.46112	 1.56000	-2.68600
	194	1	8	-1.18080	25.02912	 4.46600	-1.06100
	195	1	8	-1.18080	24.60557	 1.72100	-1.06400
	196	1	9	-0.95000	22.05268	 2.75500	-0.99300
	197	1	7	-1.05000	22.96313	 0.99200	-3.29800
	198	1	7	-1.05000	24.63887	 3.01200	-3.29400
	199	1	7	-1.05000	20.40681	 0.51200	-3.05600
	200	1	5	 0.42500	22.36511	 3.46600	-1.42400
	201	1	4	 1.57500	28.37782	 1.49800	-0.00100
	202	1	12	 2.10000	29.64396	-0.02500	 2.68100
	203	1	12	 2.10000	29.71888	 2.92300	 2.68600
	204	1	11	-1.05000	29.15188	 0.01700	 1.06100
	205	1	11	-1.05000	29.57443	 2.76200	 1.06400
	206	1	10	-1.08090	26.96732	 1.72800	 0.99300
	207	1	7	-1.05000	26.05687	 3.49100	 3.29800
	208	1	7	-1.05000	29.54213	 1.47100	 3.29400
	209	1	7	-1.05000	28.61319	 3.97100	 3.05600
	210	1	5	 0.42500	26.65489	 1.01700	 1.42400
	211	1	4	 1.57500	28.38218	 7.46800	 0.00100
	212	1	12	 2.10000	27.11604	 0.02500	-2.68100
	213	1	12	 2.10000	27.04112	 6.04300	-2.68600
	214	1	11	-1.05000	27.60812	-0.01700	-1.06100
	215	1	11	-1.05000	27.18557	 6.20400	-1.06400
	216	1	10	-1.08090	29.79268	 7.23800	-0.99300
	217	1	7	-1.05000	25.54313	 5.47400	-3.29800
	218	1	7	-1.05000	27.21887	 7.49500	-3.29400
	219	1	7	-1.05000	28.14681	 4.99500	-3.05600
	220	1	5	 0.42500	30.10511	 7.94900	-1.42400
	221	1	4	 1.57500	25.79682	 5.98100	-0.00100
	222	1	12	 2.10000	27.06396	 4.45800	 2.68100
	223	1	12	 2.10000	27.13888	 7.40600	 2.68600
	224	1	8	-1.18080	26.57188	 4.50000	 1.06100
	225	1	11	-1.05000	26.99343	 7.24400	 1.06400
	226	1	10	-1.08090	29.54732	 6.21100	 0.99300
	227	1	7	-1.05000	28.63687	 7.97400	 3.29800
	228	1	7	-1.05000	26.96213	 5.95300	 3.29400
	229	1	7	-1.05000	26.03319	 8.45400	 3.05600
	230	1	5	 0.42500	29.23489	 5.50000	 1.42400
	231	1	6	 1.36000	25.80218	 2.98500	 0.00100
	232	1	12	 2.10000	29.69704	 4.50800	-2.68100
	233	1	12	 2.10000	29.62112	 1.56000	-2.68600
	234	1	8	-1.18080	30.18912	 4.46600	-1.06100
	235	1	11	-1.05000	29.76557	 1.72100	-1.06400
	236	1	10	-1.08090	27.21268	 2.75500	-0.99300
	237	1	7	-1.05000	28.12313	 0.99200	-3.29800
	238	1	7	-1.05000	29.79887	 3.01200	-3.29400
	239	1	7	-1.05000	25.56681	 0.51200	-3.05600
	240	1	5	 0.42500	27.52511	 3.46600	-1.42400
	241	1	4	 1.57500	 2.57782	10.46380	-0.00100
	242	1	12	 2.10000	 3.84396	 8.94080	 2.68100
	243	1	12	 2.10000	 3.91888	11.88880	 2.68600
	244	1	11	-1.05000	 3.35188	 8.98280	 1.06100
	245	1	11	-1.05000	 3.77443	11.72780	 1.06400
	246	1	9	-0.95000	 1.16732	10.69380	 0.99300
	247	1	7	-1.05000	 0.25687	12.45680	 3.29800
	248	1	7	-1.05000	 3.74213	10.43680	 3.29400
	249	1	7	-1.05000	 2.81319	12.93680	 3.05600
	250	1	5	 0.42500	 0.85489	 9.98280	 1.42400
	251	1	4	 1.57500	 2.58218	16.43380	 0.00100
	252	1	12	 2.10000	 1.31604	 8.99080	-2.68100
	253	1	12	 2.10000	 1.24112	15.00880	-2.68600
	254	1	11	-1.05000	 1.80812	 8.94880	-1.06100
	255	1	11	-1.05000	 1.38557	15.16980	-1.06400
	256	1	9	-0.95000	 3.99268	16.20380	-0.99300
	257	1	7	-1.05000	-0.25687	14.43980	-3.29800
	258	1	7	-1.05000	 1.41887	16.46080	-3.29400
	259	1	7	-1.05000	 2.34681	13.96080	-3.05600
	260	1	5	 0.42500	 4.30511	16.91480	-1.42400
	261	1	4	 1.57500	-0.00318	14.94680	-0.00100
	262	1	12	 2.10000	 1.26396	13.42380	 2.68100
	263	1	12	 2.10000	 1.33888	16.37180	 2.68600
	264	1	11	-1.05000	 0.77188	13.46580	 1.06100
	265	1	11	-1.05000	 1.19343	16.20980	 1.06400
	266	1	9	-0.95000	 3.74732	15.17680	 0.99300
	267	1	7	-1.05000	 2.83687	16.93980	 3.29800
	268	1	7	-1.05000	 1.16213	14.91880	 3.29400
	269	1	7	-1.05000	 0.23319	17.41980	 3.05600
	270	1	5	 0.42500	 3.43489	14.46580	 1.42400
	271	1	4	 1.57500	 0.00218	11.95080	 0.00100
	272	1	12	 2.10000	 3.89704	13.47380	-2.68100
	273	1	12	 2.10000	 3.82112	10.52580	-2.68600
	274	1	11	-1.05000	 4.38912	13.43180	-1.06100
	275	1	11	-1.05000	 3.96557	10.68680	-1.06400
	276	1	9	-0.95000	 1.41268	11.72080	-0.99300
	277	1	7	-1.05000	 2.32313	 9.95780	-3.29800
	278	1	7	-1.05000	 3.99887	11.97780	-3.29400
	279	1	7	-1.05000	-0.23319	 9.47780	-3.05600
	280	1	5	 0.42500	 1.72511	12.43180	-1.42400
	281	1	6	 1.36000	 7.73782	10.46380	-0.00100
	282	1	12	 2.10000	 9.00396	 8.94080	 2.68100
	283	1	12	 2.10000	 9.07888	11.88880	 2.68600
	284	1	8	-1.18080	 8.51188	 8.98280	 1.06100
	285	1	8	-1.18080	 8.93443	11.72780	 1.06400
	286	1	10	-1.08090	 6.32732	10.69380	 0.99300
	287	1	7	-1.05000	 5.41687	12.45680	 3.29800
	288	1	7	-1.05000	 8.90213	10.43680	 3.29400
	289	1	7	-1.05000	 7.97319	12.93680	 3.05600
	290	1	5	 0.42500	 6.01489	 9.98280	 1.42400
	291	1	4	 1.57500	 7.74218	16.43380	 0.00100
	292	1	12	 2.10000	 6.47604	 8.99080	-2.68100
	293	1	12	 2.10000	 6.40112	15.00880	-2.68600
	294	1	8	-1.18080	 6.96812	 8.94880	-1.06100
	295	1	11	-1.05000	 6.54557	15.16980	-1.06400
	296	1	9	-0.95000	 9.15268	16.20380	-0.99300
	297	1	7	-1.05000	 4.90313	14.43980	-3.29800
	298	1	7	-1.05000	 6.57887	16.46080	-3.29400
	299	1	7	-1.05000	 7.50681	13.96080	-3.05600
	300	1	5	 0.42500	 9.46511	16.91480	-1.42400
	301	1	4	 1.57500	 5.15682	14.94680	-0.00100
	302	1	12	 2.10000	 6.42396	13.42380	 2.68100
	303	1	12	 2.10000	 6.49888	16.37180	 2.68600
	304	1	11	-1.05000	 5.93188	13.46580	 1.06100
	305	1	11	-1.05000	 6.35343	16.20980	 1.06400
	306	1	9	-0.95000	 8.90732	15.17680	 0.99300
	307	1	7	-1.05000	 7.99687	16.93980	 3.29800
	308	1	7	-1.05000	 6.32213	14.91880	 3.29400
	309	1	7	-1.05000	 5.39319	17.41980	 3.05600
	310	1	5	 0.42500	 8.59489	14.46580	 1.42400
	311	1	4	 1.57500	 5.16218	11.95080	 0.00100
	312	1	12	 2.10000	 9.05704	13.47380	-2.68100
	313	1	12	 2.10000	 8.98112	10.52580	-2.68600
	314	1	11	-1.05000	 9.54912	13.43180	-1.06100
	315	1	8	-1.18080	 9.12557	10.68680	-1.06400
	316	1	10	-1.08090	 6.57268	11.72080	-0.99300
	317	1	7	-1.05000	 7.48313	 9.95780	-3.29800
	318	1	7	-1.05000	 9.15887	11.97780	-3.29400
	319	1	7	-1.05000	 4.92681	 9.47780	-3.05600
	320	1	5	 0.42500	 6.88511	12.43180	-1.42400
	321	1	4	 1.57500	12.89782	10.46380	-0.00100
	322	1	12	 2.10000	14.16396	 8.94080	 2.68100
	323	1	12	 2.10000	14.23888	11.88880	 2.68600
	324	1	11	-1.05000	13.67188	 8.98280	 1.06100
	325	1	11	-1.05000	14.09443	11.72780	 1.06400
	326	1	9	-0.95000	11.48732	10.69380	 0.99300
	327	1	7	-1.05000	10.57687	12.45680	 3.29800
	328	1	7	-1.05000	14.06213	10.43680	 3.29400
	329	1	7	-1.05000	13.13319	12.93680	 3.05600
	330	1	5	 0.42500	11.17489	 9.98280	 1.42400
	331	1	4	 1.57500	12.90218	16.43380	 0.00100
	332	1	12	 2.10000	11.63604	 8.99080	-2.68100
	333	1	12	 2.10000	11.56112	15.00880	-2.68600
	334	1	11	-1.05000	12.12812	 8.94880	-1.06100
	335	1	11	-1.05000	11.70557	15.16980	-1.06400
	336	1	10	-1.08090	14.31268	16.20380	-0.99300
	337	1	7	-1.05000	10.06313	14.43980	-3.29800
	338	1	7	-1.05000	11.73887	16.46080	-3.29400
	339	1	7	-1.05000	12.66681	13.96080	-3.05600
	340	1	5	 0.42500	14.62511	16.91480	-1.42400
	341	1	4	 1.57500	10.31682	14.94680	-0.00100
	342	1	12	 2.10000	11.58396	13.42380	 2.68100
	343	1	12	 2.10000	11.65888	16.37180	 2.68600
	344	1	11	-1.05000	11.09188	13.46580	 1.06100
	345	1	11	-1.05000	11.51343	16.20980	 1.06400
	346	1	10	-1.08090	14.06732	15.17680	 0.99300
	347	1	7	-1.05000	13.15687	16.93980	 3.29800
	348	1	7	-1.05000	11.48213	14.91880	 3.29400
	349	1	7	-1.05000	10.55319	17.41980	 3.05600
	350	1	5	 0.42500	13.75489	14.46580	 1.42400
	351	1	4	 1.57500	10.32218	11.95080	 0.00100
	352	1	12	 2.10000	14.21704	13.47380	-2.68100
	353	1	12	 2.10000	14.14112	10.52580	-2.68600
	354	1	8	-1.18080	14.70912	13.43180	-1.06100
	355	1	11	-1.05000	14.28557	10.68680	-1.06400
	356	1	9	-0.95000	11.73268	11.72080	-0.99300
	357	1	7	-1.05000	12.64313	 9.95780	-3.29800
	358	1	7	-1.05000	14.31887	11.97780	-3.29400
	359	1	7	-1.05000	10.08681	 9.47780	-3.05600
	360	1	5	 0.42500	12.04511	12.43180	-1.42400
	361	1	4	 1.57500	18.05782	10.46380	-0.00100
	362	1	12	 2.10000	19.32396	 8.94080	 2.68100
	363	1	12	 2.10000	19.39888	11.88880	 2.68600
	364	1	8	-1.18080	18.83188	 8.98280	 1.06100
	365	1	11	-1.05000	19.25443	11.72780	 1.06400
	366	1	9	-0.95000	16.64732	10.69380	 0.99300
	367	1	7	-1.05000	15.73687	12.45680	 3.29800
	368	1	7	-1.05000	19.22213	10.43680	 3.29400
	369	1	7	-1.05000	18.29319	12.93680	 3.05600
	370	1	5	 0.42500	16.33489	 9.98280	 1.42400
	371	1	4	 1.57500	18.06218	16.43380	 0.00100
	372	1	12	 2.10000	16.79604	 8.99080	-2.68100
	373	1	12	 2.10000	16.72112	15.00880	-2.68600
	374	1	8	-1.18080	17.28812	 8.94880	-1.06100
	375	1	8	-1.18080	16.86557	15.16980	-1.06400
	376	1	9	-0.95000	19.47268	16.20380	-0.99300
	377	1	7	-1.05000	15.22313	14.43980	-3.29800
	378	1	7	-1.05000	16.89887	16.46080	-3.29400
	379	1	7	-1.05000	17.82681	13.96080	-3.05600
	380	1	5	 0.42500	19.78511	16.91480	-1.42400
	381	1	6	 1.36000	15.47682	14.94680	-0.00100
	382	1	12	 2.10000	16.74396	13.42380	 2.68100
	383	1	12	 2.10000	16.81888	16.37180	 2.68600
	384	1	8	-1.18080	16.25188	13.46580	 1.06100
	385	1	8	-1.18080	16.67343	16.20980	 1.06400
	386	1	9	-0.95000	19.22732	15.17680	 0.99300
	387	1	7	-1.05000	18.31687	16.93980	 3.29800
	388	1	7	-1.05000	16.64213	14.91880	 3.29400
	389	1	7	-1.05000	15.71319	17.41980	 3.05600
	390	1	5	 0.42500	18.91489	14.46580	 1.42400
	391	1	4	 1.57500	15.48218	11.95080	 0.00100
	392	1	12	 2.10000	19.37704	13.47380	-2.68100
	393	1	12	 2.10000	19.30112	10.52580	-2.68600
	394	1	11	-1.05000	19.86912	13.43180	-1.06100
	395	1	11	-1.05000	19.44557	10.68680	-1.06400
	396	1	9	-0.95000	16.89268	11.72080	-0.99300
	397	1	7	-1.05000	17.80313	 9.95780	-3.29800
	398	1	7	-1.05000	19.47887	11.97780	-3.29400
	399	1	7	-1.05000	15.24681	 9.47780	-3.05600
	400	1	5	 0.42500	17.20511	12.43180	-1.42400
	401	1	6	 1.36000	23.21782	10.46380	-0.00100
	402	1	12	 2.10000	24.48396	 8.94080	 2.68100
	403	1	12	 2.10000	24.55888	11.88880	 2.68600
	404	1	8	-1.18080	23.99188	 8.98280	 1.06100
	405	1	8	-1.18080	24.41443	11.72780	 1.06400
	406	1	10	-1.08090	21.80732	10.69380	 0.99300
	407	1	7	-1.05000	20.89687	12.45680	 3.29800
	408	1	7	-1.05000	24.38213	10.43680	 3.29400
	409	1	7	-1.05000	23.45319	12.93680	 3.05600
	410	1	5	 0.42500	21.49489	 9.98280	 1.42400
	411	1	4	 1.57500	23.22218	16.43380	 0.00100
	412	1	12	 2.10000	21.95604	 8.99080	-2.68100
	413	1	12	 2.10000	21.88112	15.00880	-2.68600
	414	1	8	-1.18080	22.44812	 8.94880	-1.06100
	415	1	11	-1.05000	22.02557	15.16980	-1.06400
	416	1	9	-0.95000	24.63268	16.20380	-0.99300
	417	1	7	-1.05000	20.38313	14.43980	-3.29800
	418	1	7	-1.05000	22.05887	16.46080	-3.29400
	419	1	7	-1.05000	22.98681	13.96080	-3.05600
	420	1	5	 0.42500	24.94511	16.91480	-1.42400
	421	1	4	 1.57500	20.63682	14.94680	-0.00100
	422	1	12	 2.10000	21.90396	13.42380	 2.68100
	423	1	12	 2.10000	21.97888	16.37180	 2.68600
	424	1	11	-1.05000	21.41188	13.46580	 1.06100
	425	1	11	-1.05000	21.83343	16.20980	 1.06400
	426	1	9	-0.95000	24.38732	15.17680	 0.99300
	427	1	7	-1.05000	23.47687	16.93980	 3.29800
	428	1	7	-1.05000	21.80213	14.91880	 3.29400
	429	1	7	-1.05000	20.87319	17.41980	 3.05600
	430	1	5	 0.42500	24.07489	14.46580	 1.42400
	431	1	4	 1.57500	20.64218	11.95080	 0.00100
	432	1	12	 2.10000	24.53704	13.47380	-2.68100
	433	1	12	 2.10000	24.46112	10.52580	-2.68600
	434	1	11	-1.05000	25.02912	13.43180	-1.06100
	435	1	8	-1.18080	24.60557	10.68680	-1.06400
	436	1	10	-1.08090	22.05268	11.72080	-0.99300
	437	1	7	-1.05000	22.96313	 9.95780	-3.29800
	438	1	7	-1.05000	24.63887	11.97780	-3.29400
	439	1	7	-1.05000	20.40681	 9.47780	-3.05600
	440	1	5	 0.42500	22.36511	12.43180	-1.42400
	441	1	4	 1.57500	28.37782	10.46380	-0.00100
	442	1	12	 2.10000	29.64396	 8.94080	 2.68100
	443	1	12	 2.10000	29.71888	11.88880	 2.68600
	444	1	11	-1.05000	29.15188	 8.98280	 1.06100
	445	1	11	-1.05000	29.57443	11.72780	 1.06400
	446	1	9	-0.95000	26.96732	10.69380	 0.99300
	447	1	7	-1.05000	26.05687	12.45680	 3.29800
	448	1	7	-1.05000	29.54213	10.43680	 3.29400
	449	1	7	-1.05000	28.61319	12.93680	 3.05600
	450	1	5	 0.42500	26.65489	 9.98280	 1.42400
	451	1	6	 1.36000	28.38218	16.43380	 0.00100
	452	1	12	 2.10000	27.11604	 8.99080	-2.68100
	453	1	12	 2.10000	27.04112	15.00880	-2.68600
	454	1	11	-1.05000	27.60812	 8.94880	-1.06100
	455	1	8	-1.18080	27.18557	15.16980	-1.06400
	456	1	10	-1.08090	29.79268	16.20380	-0.99300
	457	1	7	-1.05000	25.54313	14.43980	-3.29800
	458	1	7	-1.05000	27.21887	16.46080	-3.29400
	459	1	7	-1.05000	28.14681	13.96080	-3.05600
	460	1	5	 0.42500	30.10511	16.91480	-1.42400
	461	1	4	 1.57500	25.79682	14.94680	-0.00100
	462	1	12	 2.10000	27.06396	13.42380	 2.68100
	463	1	12	 2.10000	27.13888	16.37180	 2.68600
	464	1	11	-1.05000	26.57188	13.46580	 1.06100
	465	1	8	-1.18080	26.99343	16.20980	 1.06400
	466	1	10	-1.08090	29.54732	15.17680	 0.99300
	467	1	7	-1.05000	28.63687	16.93980	 3.29800
	468	1	7	-1.05000	26.96213	14.91880	 3.29400
	469	1	7	-1.05000	26.03319	17.41980	 3.05600
	470	1	5	 0.42500	29.23489	14.46580	 1.42400
	471	1	4	 1.57500	25.80218	11.95080	 0.00100
	472	1	12	 2.10000	29.69704	13.47380	-2.68100
	473	1	12	 2.10000	29.62112	10.52580	-2.68600
	474	1	11	-1.05000	30.18912	13.43180	-1.06100
	475	1	11	-1.05000	29.76557	10.68680	-1.06400
	476	1	9	-0.95000	27.21268	11.72080	-0.99300
	477	1	7	-1.05000	28.12313	 9.95780	-3.29800
	478	1	7	-1.05000	29.79887	11.97780	-3.29400
	479	1	7	-1.05000	25.56681	 9.47780	-3.05600
	480	1	5	 0.42500	27.52511	12.43180	-1.42400
	481	1	4	 1.57500	 2.57782	19.42960	-0.00100
	482	1	12	 2.10000	 3.84396	17.90660	 2.68100
	483	1	12	 2.10000	 3.91888	20.85460	 2.68600
	484	1	11	-1.05000	 3.35188	17.94860	 1.06100
	485	1	8	-1.18080	 3.77443	20.69360	 1.06400
	486	1	9	-0.95000	 1.16732	19.65960	 0.99300
	487	1	7	-1.05000	 0.25687	21.42260	 3.29800
	488	1	7	-1.05000	 3.74213	19.40260	 3.29400
	489	1	7	-1.05000	 2.81319	21.90260	 3.05600
	490	1	5	 0.42500	 0.85489	18.94860	 1.42400
	491	1	4	 1.57500	 2.58218	25.39960	 0.00100
	492	1	12	 2.10000	 1.31604	17.95660	-2.68100
	493	1	12	 2.10000	 1.24112	23.97460	-2.68600
	494	1	11	-1.05000	 1.80812	17.91460	-1.06100
	495	1	11	-1.05000	 1.38557	24.13560	-1.06400
	496	1	9	-0.95000	 3.99268	25.16960	-0.99300
	497	1	7	-1.05000	-0.25687	23.40560	-3.29800
	498	1	7	-1.05000	 1.41887	25.42660	-3.29400
	499	1	7	-1.05000	 2.34681	22.92660	-3.05600
	500	1	5	 0.42500	 4.30511	25.88060	-1.42400
	501	1	4	 1.57500	-0.00318	23.91260	-0.00100
	502	1	12	 2.10000	 1.26396	22.38960	 2.68100
	503	1	12	 2.10000	 1.33888	25.33760	 2.68600
	504	1	11	-1.05000	 0.77188	22.43160	 1.06100
	505	1	11	-1.05000	 1.19343	25.17560	 1.06400
	506	1	9	-0.95000	 3.74732	24.14260	 0.99300
	507	1	7	-1.05000	 2.83687	25.90560	 3.29800
	508	1	7	-1.05000	 1.16213	23.88460	 3.29400
	509	1	7	-1.05000	 0.23319	26.38560	 3.05600
	510	1	5	 0.42500	 3.43489	23.43160	 1.42400
	511	1	4	 1.57500	 0.00218	20.91660	 0.00100
	512	1	12	 2.10000	 3.89704	22.43960	-2.68100
	513	1	12	 2.10000	 3.82112	19.49160	-2.68600
	514	1	8	-1.18080	 4.38912	22.39760	-1.06100
	515	1	8	-1.18080	 3.96557	19.65260	-1.06400
	516	1	9	-0.95000	 1.41268	20.68660	-0.99300
	517	1	7	-1.05000	 2.32313	18.92360	-3.29800
	518	1	7	-1.05000	 3.99887	20.94360	-3.29400
	519	1	7	-1.05000	-0.23319	18.44360	-3.05600
	520	1	5	 0.42500	 1.72511	21.39760	-1.42400
	521	1	4	 1.57500	 7.73782	19.42960	-0.00100
	522	1	12	 2.10000	 9.00396	17.90660	 2.68100
	523	1	12	 2.10000	 9.07888	20.85460	 2.68600
	524	1	11	-1.05000	 8.51188	17.94860	 1.06100
	525	1	11	-1.05000	 8.93443	20.69360	 1.06400
	526	1	10	-1.08090	 6.32732	19.65960	 0.99300
	527	1	7	-1.05000	 5.41687	21.42260	 3.29800
	528	1	7	-1.05000	 8.90213	19.40260	 3.29400
	529	1	7	-1.05000	 7.97319	21.90260	 3.05600
	530	1	5	 0.42500	 6.01489	18.94860	 1.42400
	531	1	4	 1.57500	 7.74218	25.39960	 0.00100
	532	1	12	 2.10000	 6.47604	17.95660	-2.68100
	533	1	12	 2.10000	 6.40112	23.97460	-2.68600
	534	1	11	-1.05000	 6.96812	17.91460	-1.06100
	535	1	11	-1.05000	 6.54557	24.13560	-1.06400
	536	1	9	-0.95000	 9.15268	25.16960	-0.99300
	537	1	7	-1.05000	 4.90313	23.40560	-3.29800
	538	1	7	-1.05000	 6.57887	25.42660	-3.29400
	539	1	7	-1.05000	 7.50681	22.92660	-3.05600
	540	1	5	 0.42500	 9.46511	25.88060	-1.42400
	541	1	4	 1.57500	 5.15682	23.91260	-0.00100
	542	1	12	 2.10000	 6.42396	22.38960	 2.68100
	543	1	12	 2.10000	 6.49888	25.33760	 2.68600
	544	1	8	-1.18080	 5.93188	22.43160	 1.06100
	545	1	11	-1.05000	 6.35343	25.17560	 1.06400
	546	1	9	-0.95000	 8.90732	24.14260	 0.99300
	547	1	7	-1.05000	 7.99687	25.90560	 3.29800
	548	1	7	-1.05000	 6.32213	23.88460	 3.29400
	549	1	7	-1.05000	 5.39319	26.38560	 3.05600
	550	1	5	 0.42500	 8.59489	23.43160	 1.42400
	551	1	6	 1.36000	 5.16218	20.91660	 0.00100
	552	1	12	 2.10000	 9.05704	22.43960	-2.68100
	553	1	12	 2.10000	 8.98112	19.49160	-2.68600
	554	1	11	-1.05000	 9.54912	22.39760	-1.06100
	555	1	11	-1.05000	 9.12557	19.65260	-1.06400
	556	1	10	-1.08090	 6.57268	20.68660	-0.99300
	557	1	7	-1.05000	 7.48313	18.92360	-3.29800
	558	1	7	-1.05000	 9.15887	20.94360	-3.29400
	559	1	7	-1.05000	 4.92681	18.44360	-3.05600
	560	1	5	 0.42500	 6.88511	21.39760	-1.42400
	561	1	4	 1.57500	12.89782	19.42960	-0.00100
	562	1	12	 2.10000	14.16396	17.90660	 2.68100
	563	1	12	 2.10000	14.23888	20.85460	 2.68600
	564	1	11	-1.05000	13.67188	17.94860	 1.06100
	565	1	11	-1.05000	14.09443	20.69360	 1.06400
	566	1	9	-0.95000	11.48732	19.65960	 0.99300
	567	1	7	-1.05000	10.57687	21.42260	 3.29800
	568	1	7	-1.05000	14.06213	19.40260	 3.29400
	569	1	7	-1.05000	13.13319	21.90260	 3.05600
	570	1	5	 0.42500	11.17489	18.94860	 1.42400
	571	1	6	 1.36000	12.90218	25.39960	 0.00100
	572	1	12	 2.10000	11.63604	17.95660	-2.68100
	573	1	12	 2.10000	11.56112	23.97460	-2.68600
	574	1	11	-1.05000	12.12812	17.91460	-1.06100
	575	1	8	-1.18080	11.70557	24.13560	-1.06400
	576	1	10	-1.08090	14.31268	25.16960	-0.99300
	577	1	7	-1.05000	10.06313	23.40560	-3.29800
	578	1	7	-1.05000	11.73887	25.42660	-3.29400
	579	1	7	-1.05000	12.66681	22.92660	-3.05600
	580	1	5	 0.42500	14.62511	25.88060	-1.42400
	581	1	4	 1.57500	10.31682	23.91260	-0.00100
	582	1	12	 2.10000	11.58396	22.38960	 2.68100
	583	1	12	 2.10000	11.65888	25.33760	 2.68600
	584	1	11	-1.05000	11.09188	22.43160	 1.06100
	585	1	8	-1.18080	11.51343	25.17560	 1.06400
	586	1	10	-1.08090	14.06732	24.14260	 0.99300
	587	1	7	-1.05000	13.15687	25.90560	 3.29800
	588	1	7	-1.05000	11.48213	23.88460	 3.29400
	589	1	7	-1.05000	10.55319	26.38560	 3.05600
	590	1	5	 0.42500	13.75489	23.43160	 1.42400
	591	1	4	 1.57500	10.32218	20.91660	 0.00100
	592	1	12	 2.10000	14.21704	22.43960	-2.68100
	593	1	12	 2.10000	14.14112	19.49160	-2.68600
	594	1	11	-1.05000	14.70912	22.39760	-1.06100
	595	1	11	-1.05000	14.28557	19.65260	-1.06400
	596	1	9	-0.95000	11.73268	20.68660	-0.99300
	597	1	7	-1.05000	12.64313	18.92360	-3.29800
	598	1	7	-1.05000	14.31887	20.94360	-3.29400
	599	1	7	-1.05000	10.08681	18.44360	-3.05600
	600	1	5	 0.42500	12.04511	21.39760	-1.42400
	601	1	4	 1.57500	18.05782	19.42960	-0.00100
	602	1	12	 2.10000	19.32396	17.90660	 2.68100
	603	1	12	 2.10000	19.39888	20.85460	 2.68600
	604	1	11	-1.05000	18.83188	17.94860	 1.06100
	605	1	8	-1.18080	19.25443	20.69360	 1.06400
	606	1	9	-0.95000	16.64732	19.65960	 0.99300
	607	1	7	-1.05000	15.73687	21.42260	 3.29800
	608	1	7	-1.05000	19.22213	19.40260	 3.29400
	609	1	7	-1.05000	18.29319	21.90260	 3.05600
	610	1	5	 0.42500	16.33489	18.94860	 1.42400
	611	1	4	 1.57500	18.06218	25.39960	 0.00100
	612	1	12	 2.10000	16.79604	17.95660	-2.68100
	613	1	12	 2.10000	16.72112	23.97460	-2.68600
	614	1	11	-1.05000	17.28812	17.91460	-1.06100
	615	1	11	-1.05000	16.86557	24.13560	-1.06400
	616	1	9	-0.95000	19.47268	25.16960	-0.99300
	617	1	7	-1.05000	15.22313	23.40560	-3.29800
	618	1	7	-1.05000	16.89887	25.42660	-3.29400
	619	1	7	-1.05000	17.82681	22.92660	-3.05600
	620	1	5	 0.42500	19.78511	25.88060	-1.42400
	621	1	4	 1.57500	15.47682	23.91260	-0.00100
	622	1	12	 2.10000	16.74396	22.38960	 2.68100
	623	1	12	 2.10000	16.81888	25.33760	 2.68600
	624	1	11	-1.05000	16.25188	22.43160	 1.06100
	625	1	11	-1.05000	16.67343	25.17560	 1.06400
	626	1	9	-0.95000	19.22732	24.14260	 0.99300
	627	1	7	-1.05000	18.31687	25.90560	 3.29800
	628	1	7	-1.05000	16.64213	23.88460	 3.29400
	629	1	7	-1.05000	15.71319	26.38560	 3.05600
	630	1	5	 0.42500	18.91489	23.43160	 1.42400
	631	1	4	 1.57500	15.48218	20.91660	 0.00100
	632	1	12	 2.10000	19.37704	22.43960	-2.68100